<?xml version="1.0" encoding="ISO-8859-1"?>
<modeling>
 <generator>
  <i name="program" type="string">vasp </i>
  <i name="version" type="string">6.3.2  </i>
  <i name="subversion" type="string">27Jun22 (build Dec 22 2022 13:13:19) complex                          parallel </i>
  <i name="platform" type="string">LinuxIFC </i>
  <i name="date" type="string">2023 11 03 </i>
  <i name="time" type="string">19:35:10 </i>
 </generator>
 <incar>
  <i type="string" name="SYSTEM">Lattice</i>
  <i type="int" name="ISTART">     0</i>
  <i type="string" name="PREC">Accurate</i>
  <i type="string" name="ALGO">Normal</i>
  <i type="int" name="ISPIN">     1</i>
  <i type="int" name="ICHARG">     2</i>
  <i type="int" name="NELM">    64</i>
  <i type="int" name="IBRION">     2</i>
  <i name="EDIFF">      0.00000100</i>
  <i name="EDIFFG">     -0.00100000</i>
  <i type="int" name="NSW">   256</i>
  <i type="int" name="ISIF">     2</i>
  <i name="ENCUT">    450.00000000</i>
  <i name="POTIM">      0.50000000</i>
  <i type="int" name="ISMEAR">     0</i>
  <i name="SIGMA">      0.10000000</i>
  <i type="logical" name="LWAVE"> F  </i>
  <i type="logical" name="LCHARG"> F  </i>
  <i type="string" name="GGA">PE</i>
  <i type="int" name="IVDW">    12</i>
 </incar>
 <primitive_cell>
  <structure name="primitive_cell" >
   <crystal>
    <varray name="basis" >
     <v>       2.13648500       1.23350000       0.00000000 </v>
     <v>      -2.13648500       1.23350000       0.00000000 </v>
     <v>       0.00000000       0.00000000      15.00000000 </v>
    </varray>
    <i name="volume">     79.06062743 </i>
    <varray name="rec_basis" >
     <v>       0.23402926       0.40535063       0.00000000 </v>
     <v>      -0.23402926       0.40535063       0.00000000 </v>
     <v>       0.00000000       0.00000000       0.06666667 </v>
    </varray>
   </crystal>
   <varray name="positions" >
    <v>       0.33333300       0.66666600       0.10000000 </v>
    <v>       0.66666600       0.33333300       0.10000000 </v>
   </varray>
  </structure>
  <varray name="primitive_index" >
   <v type="int" >        1 </v>
   <v type="int" >        2 </v>
  </varray>
 </primitive_cell>
 <kpoints>
  <generation param="Gamma">
   <v type="int" name="divisions">      33       33        1 </v>
   <v name="usershift">      0.00000000       0.00000000       0.00000000 </v>
   <v name="genvec1">      0.03030303      -0.00000000       0.00000000 </v>
   <v name="genvec2">     -0.00000000       0.03030303       0.00000000 </v>
   <v name="genvec3">      0.00000000       0.00000000       1.00000000 </v>
   <v name="shift">      0.00000000       0.00000000       0.00000000 </v>
  </generation>
  <varray name="kpointlist" >
   <v>       0.00000000       0.00000000       0.00000000 </v>
   <v>       0.03030303       0.00000000       0.00000000 </v>
   <v>       0.06060606       0.00000000       0.00000000 </v>
   <v>       0.09090909       0.00000000       0.00000000 </v>
   <v>       0.12121212       0.00000000       0.00000000 </v>
   <v>       0.15151515       0.00000000       0.00000000 </v>
   <v>       0.18181818       0.00000000       0.00000000 </v>
   <v>       0.21212121       0.00000000       0.00000000 </v>
   <v>       0.24242424       0.00000000       0.00000000 </v>
   <v>       0.27272727       0.00000000       0.00000000 </v>
   <v>       0.30303030       0.00000000       0.00000000 </v>
   <v>       0.33333333       0.00000000       0.00000000 </v>
   <v>       0.36363636       0.00000000       0.00000000 </v>
   <v>       0.39393939       0.00000000       0.00000000 </v>
   <v>       0.42424242       0.00000000       0.00000000 </v>
   <v>       0.45454545       0.00000000       0.00000000 </v>
   <v>       0.48484848       0.00000000       0.00000000 </v>
   <v>       0.03030303       0.03030303       0.00000000 </v>
   <v>       0.06060606       0.03030303       0.00000000 </v>
   <v>       0.09090909       0.03030303       0.00000000 </v>
   <v>       0.12121212       0.03030303       0.00000000 </v>
   <v>       0.15151515       0.03030303       0.00000000 </v>
   <v>       0.18181818       0.03030303       0.00000000 </v>
   <v>       0.21212121       0.03030303       0.00000000 </v>
   <v>       0.24242424       0.03030303       0.00000000 </v>
   <v>       0.27272727       0.03030303       0.00000000 </v>
   <v>       0.30303030       0.03030303       0.00000000 </v>
   <v>       0.33333333       0.03030303       0.00000000 </v>
   <v>       0.36363636       0.03030303       0.00000000 </v>
   <v>       0.39393939       0.03030303       0.00000000 </v>
   <v>       0.42424242       0.03030303       0.00000000 </v>
   <v>       0.45454545       0.03030303       0.00000000 </v>
   <v>       0.48484848       0.03030303       0.00000000 </v>
   <v>       0.06060606       0.06060606       0.00000000 </v>
   <v>       0.09090909       0.06060606       0.00000000 </v>
   <v>       0.12121212       0.06060606       0.00000000 </v>
   <v>       0.15151515       0.06060606       0.00000000 </v>
   <v>       0.18181818       0.06060606       0.00000000 </v>
   <v>       0.21212121       0.06060606       0.00000000 </v>
   <v>       0.24242424       0.06060606       0.00000000 </v>
   <v>       0.27272727       0.06060606       0.00000000 </v>
   <v>       0.30303030       0.06060606       0.00000000 </v>
   <v>       0.33333333       0.06060606       0.00000000 </v>
   <v>       0.36363636       0.06060606       0.00000000 </v>
   <v>       0.39393939       0.06060606       0.00000000 </v>
   <v>       0.42424242       0.06060606       0.00000000 </v>
   <v>       0.45454545       0.06060606       0.00000000 </v>
   <v>       0.09090909       0.09090909       0.00000000 </v>
   <v>       0.12121212       0.09090909       0.00000000 </v>
   <v>       0.15151515       0.09090909       0.00000000 </v>
   <v>       0.18181818       0.09090909       0.00000000 </v>
   <v>       0.21212121       0.09090909       0.00000000 </v>
   <v>       0.24242424       0.09090909       0.00000000 </v>
   <v>       0.27272727       0.09090909       0.00000000 </v>
   <v>       0.30303030       0.09090909       0.00000000 </v>
   <v>       0.33333333       0.09090909       0.00000000 </v>
   <v>       0.36363636       0.09090909       0.00000000 </v>
   <v>       0.39393939       0.09090909       0.00000000 </v>
   <v>       0.42424242       0.09090909       0.00000000 </v>
   <v>       0.45454545       0.09090909       0.00000000 </v>
   <v>       0.12121212       0.12121212       0.00000000 </v>
   <v>       0.15151515       0.12121212       0.00000000 </v>
   <v>       0.18181818       0.12121212       0.00000000 </v>
   <v>       0.21212121       0.12121212       0.00000000 </v>
   <v>       0.24242424       0.12121212       0.00000000 </v>
   <v>       0.27272727       0.12121212       0.00000000 </v>
   <v>       0.30303030       0.12121212       0.00000000 </v>
   <v>       0.33333333       0.12121212       0.00000000 </v>
   <v>       0.36363636       0.12121212       0.00000000 </v>
   <v>       0.39393939       0.12121212       0.00000000 </v>
   <v>       0.42424242       0.12121212       0.00000000 </v>
   <v>       0.15151515       0.15151515       0.00000000 </v>
   <v>       0.18181818       0.15151515       0.00000000 </v>
   <v>       0.21212121       0.15151515       0.00000000 </v>
   <v>       0.24242424       0.15151515       0.00000000 </v>
   <v>       0.27272727       0.15151515       0.00000000 </v>
   <v>       0.30303030       0.15151515       0.00000000 </v>
   <v>       0.33333333       0.15151515       0.00000000 </v>
   <v>       0.36363636       0.15151515       0.00000000 </v>
   <v>       0.39393939       0.15151515       0.00000000 </v>
   <v>       0.42424242       0.15151515       0.00000000 </v>
   <v>       0.18181818       0.18181818       0.00000000 </v>
   <v>       0.21212121       0.18181818       0.00000000 </v>
   <v>       0.24242424       0.18181818       0.00000000 </v>
   <v>       0.27272727       0.18181818       0.00000000 </v>
   <v>       0.30303030       0.18181818       0.00000000 </v>
   <v>       0.33333333       0.18181818       0.00000000 </v>
   <v>       0.36363636       0.18181818       0.00000000 </v>
   <v>       0.39393939       0.18181818       0.00000000 </v>
   <v>       0.21212121       0.21212121       0.00000000 </v>
   <v>       0.24242424       0.21212121       0.00000000 </v>
   <v>       0.27272727       0.21212121       0.00000000 </v>
   <v>       0.30303030       0.21212121       0.00000000 </v>
   <v>       0.33333333       0.21212121       0.00000000 </v>
   <v>       0.36363636       0.21212121       0.00000000 </v>
   <v>       0.39393939       0.21212121       0.00000000 </v>
   <v>       0.24242424       0.24242424       0.00000000 </v>
   <v>       0.27272727       0.24242424       0.00000000 </v>
   <v>       0.30303030       0.24242424       0.00000000 </v>
   <v>       0.33333333       0.24242424       0.00000000 </v>
   <v>       0.36363636       0.24242424       0.00000000 </v>
   <v>       0.27272727       0.27272727       0.00000000 </v>
   <v>       0.30303030       0.27272727       0.00000000 </v>
   <v>       0.33333333       0.27272727       0.00000000 </v>
   <v>       0.36363636       0.27272727       0.00000000 </v>
   <v>       0.30303030       0.30303030       0.00000000 </v>
   <v>       0.33333333       0.30303030       0.00000000 </v>
   <v>       0.33333333       0.33333333       0.00000000 </v>
  </varray>
  <varray name="weights" >
   <v>       0.00091827 </v>
   <v>       0.00550964 </v>
   <v>       0.00550964 </v>
   <v>       0.00550964 </v>
   <v>       0.00550964 </v>
   <v>       0.00550964 </v>
   <v>       0.00550964 </v>
   <v>       0.00550964 </v>
   <v>       0.00550964 </v>
   <v>       0.00550964 </v>
   <v>       0.00550964 </v>
   <v>       0.00550964 </v>
   <v>       0.00550964 </v>
   <v>       0.00550964 </v>
   <v>       0.00550964 </v>
   <v>       0.00550964 </v>
   <v>       0.00550964 </v>
   <v>       0.00550964 </v>
   <v>       0.01101928 </v>
   <v>       0.01101928 </v>
   <v>       0.01101928 </v>
   <v>       0.01101928 </v>
   <v>       0.01101928 </v>
   <v>       0.01101928 </v>
   <v>       0.01101928 </v>
   <v>       0.01101928 </v>
   <v>       0.01101928 </v>
   <v>       0.01101928 </v>
   <v>       0.01101928 </v>
   <v>       0.01101928 </v>
   <v>       0.01101928 </v>
   <v>       0.01101928 </v>
   <v>       0.00550964 </v>
   <v>       0.00550964 </v>
   <v>       0.01101928 </v>
   <v>       0.01101928 </v>
   <v>       0.01101928 </v>
   <v>       0.01101928 </v>
   <v>       0.01101928 </v>
   <v>       0.01101928 </v>
   <v>       0.01101928 </v>
   <v>       0.01101928 </v>
   <v>       0.01101928 </v>
   <v>       0.01101928 </v>
   <v>       0.01101928 </v>
   <v>       0.01101928 </v>
   <v>       0.01101928 </v>
   <v>       0.00550964 </v>
   <v>       0.01101928 </v>
   <v>       0.01101928 </v>
   <v>       0.01101928 </v>
   <v>       0.01101928 </v>
   <v>       0.01101928 </v>
   <v>       0.01101928 </v>
   <v>       0.01101928 </v>
   <v>       0.01101928 </v>
   <v>       0.01101928 </v>
   <v>       0.01101928 </v>
   <v>       0.01101928 </v>
   <v>       0.00550964 </v>
   <v>       0.00550964 </v>
   <v>       0.01101928 </v>
   <v>       0.01101928 </v>
   <v>       0.01101928 </v>
   <v>       0.01101928 </v>
   <v>       0.01101928 </v>
   <v>       0.01101928 </v>
   <v>       0.01101928 </v>
   <v>       0.01101928 </v>
   <v>       0.01101928 </v>
   <v>       0.01101928 </v>
   <v>       0.00550964 </v>
   <v>       0.01101928 </v>
   <v>       0.01101928 </v>
   <v>       0.01101928 </v>
   <v>       0.01101928 </v>
   <v>       0.01101928 </v>
   <v>       0.01101928 </v>
   <v>       0.01101928 </v>
   <v>       0.01101928 </v>
   <v>       0.00550964 </v>
   <v>       0.00550964 </v>
   <v>       0.01101928 </v>
   <v>       0.01101928 </v>
   <v>       0.01101928 </v>
   <v>       0.01101928 </v>
   <v>       0.01101928 </v>
   <v>       0.01101928 </v>
   <v>       0.01101928 </v>
   <v>       0.00550964 </v>
   <v>       0.01101928 </v>
   <v>       0.01101928 </v>
   <v>       0.01101928 </v>
   <v>       0.01101928 </v>
   <v>       0.01101928 </v>
   <v>       0.00550964 </v>
   <v>       0.00550964 </v>
   <v>       0.01101928 </v>
   <v>       0.01101928 </v>
   <v>       0.01101928 </v>
   <v>       0.01101928 </v>
   <v>       0.00550964 </v>
   <v>       0.01101928 </v>
   <v>       0.01101928 </v>
   <v>       0.00550964 </v>
   <v>       0.00550964 </v>
   <v>       0.01101928 </v>
   <v>       0.00183655 </v>
  </varray>
 </kpoints>
 <parameters>
  <separator name="general" >
   <i type="string" name="SYSTEM">Lattice</i>
   <i type="logical" name="LCOMPAT"> F  </i>
  </separator>
  <separator name="electronic" >
   <i type="string" name="PREC">accura</i>
   <i name="ENMAX">    450.00000000</i>
   <i name="ENAUG">    644.87300000</i>
   <i name="EDIFF">      0.00000100</i>
   <i type="int" name="IALGO">    38</i>
   <i type="int" name="IWAVPR">    11</i>
   <i type="int" name="NBANDS">    48</i>
   <i type="int" name="NBANDSLOW">    -1</i>
   <i type="int" name="NBANDSHIGH">    -1</i>
   <i name="NELECT">      8.00000000</i>
   <i type="int" name="TURBO">     0</i>
   <i type="int" name="IRESTART">     0</i>
   <i type="int" name="NREBOOT">     0</i>
   <i type="int" name="NMIN">     0</i>
   <i name="EREF">      0.00000000</i>
   <separator name="electronic smearing" >
    <i type="int" name="ISMEAR">     0</i>
    <i name="SIGMA">      0.10000000</i>
    <i name="KSPACING">      0.50000000</i>
    <i type="logical" name="KGAMMA"> T  </i>
    <i type="logical" name="KBLOWUP"> T  </i>
   </separator>
   <separator name="electronic projectors" >
    <i type="logical" name="LREAL"> F  </i>
    <v name="ROPT">      0.00000000</v>
    <i type="int" name="LMAXPAW">  -100</i>
    <i type="int" name="LMAXMIX">     2</i>
    <i type="logical" name="NLSPLINE"> F  </i>
   </separator>
   <separator name="electronic startup" >
    <i type="int" name="ISTART">     0</i>
    <i type="int" name="ICHARG">     2</i>
    <i type="int" name="INIWAV">     1</i>
   </separator>
   <separator name="electronic spin" >
    <i type="int" name="ISPIN">     1</i>
    <i type="logical" name="LNONCOLLINEAR"> F  </i>
    <v name="MAGMOM">      1.00000000      1.00000000</v>
    <i name="NUPDOWN">     -1.00000000</i>
    <i type="logical" name="LSORBIT"> F  </i>
    <v name="SAXIS">      0.00000000      0.00000000      1.00000000</v>
    <i type="logical" name="LSPIRAL"> F  </i>
    <v name="QSPIRAL">      0.00000000      0.00000000      0.00000000</v>
    <i type="logical" name="LZEROZ"> F  </i>
   </separator>
   <separator name="electronic exchange-correlation" >
    <i type="logical" name="LASPH"> F  </i>
    <i type="logical" name="LMETAGGA"> F  </i>
   </separator>
   <separator name="electronic convergence" >
    <i type="int" name="NELM">    64</i>
    <i type="int" name="NELMDL">    -5</i>
    <i type="int" name="NELMIN">     2</i>
    <i name="ENINI">    450.00000000</i>
    <separator name="electronic convergence detail" >
     <i type="logical" name="LDIAG"> T  </i>
     <i type="logical" name="LSUBROT"> F  </i>
     <i name="WEIMIN">      0.00100000</i>
     <i name="EBREAK">      0.00000001</i>
     <i name="DEPER">      0.30000000</i>
     <i type="int" name="NRMM">     4</i>
     <i name="TIME">      0.40000000</i>
    </separator>
   </separator>
   <separator name="electronic mixer" >
    <i name="AMIX">      0.40000000</i>
    <i name="BMIX">      1.00000000</i>
    <i name="AMIN">      0.10000000</i>
    <i name="AMIX_MAG">      1.60000000</i>
    <i name="BMIX_MAG">      1.00000000</i>
    <separator name="electronic mixer details" >
     <i type="int" name="IMIX">     4</i>
     <i type="logical" name="MIXFIRST"> F  </i>
     <i type="int" name="MAXMIX">   -45</i>
     <i name="WC">    100.00000000</i>
     <i type="int" name="INIMIX">     1</i>
     <i type="int" name="MIXPRE">     1</i>
     <i type="int" name="MREMOVE">     5</i>
    </separator>
   </separator>
   <separator name="electronic dipolcorrection" >
    <i type="logical" name="LDIPOL"> F  </i>
    <i type="logical" name="LMONO"> F  </i>
    <i type="int" name="IDIPOL">     0</i>
    <i name="EPSILON">      1.00000000</i>
    <v name="DIPOL">   -100.00000000   -100.00000000   -100.00000000</v>
    <i name="EFIELD">      0.00000000</i>
   </separator>
  </separator>
  <separator name="grids" >
   <i type="int" name="NGX">    18</i>
   <i type="int" name="NGY">    18</i>
   <i type="int" name="NGZ">   108</i>
   <i type="int" name="NGXF">    36</i>
   <i type="int" name="NGYF">    36</i>
   <i type="int" name="NGZF">   216</i>
   <i type="logical" name="ADDGRID"> F  </i>
  </separator>
  <separator name="ionic" >
   <i type="int" name="NSW">   256</i>
   <i type="int" name="IBRION">     2</i>
   <i type="int" name="MDALGO">     0</i>
   <i type="int" name="ISIF">     2</i>
   <i name="PSTRESS">      0.00000000</i>
   <i name="EDIFFG">     -0.00100000</i>
   <i type="int" name="NFREE">     1</i>
   <i name="POTIM">      0.50000000</i>
   <i name="SMASS">     -3.00000000</i>
   <i name="SCALEE">      1.00000000</i>
  </separator>
  <separator name="ionic md" >
   <i name="TEBEG">      0.00010000</i>
   <i name="TEEND">      0.00010000</i>
   <i type="int" name="NBLOCK">     1</i>
   <i type="int" name="KBLOCK">   256</i>
   <i type="int" name="NPACO">   256</i>
   <i name="APACO">     10.00000000</i>
  </separator>
  <separator name="symmetry" >
   <i type="int" name="ISYM">     2</i>
   <i name="SYMPREC">      0.00001000</i>
  </separator>
  <separator name="dos" >
   <i type="int" name="LORBIT">     0</i>
   <v name="RWIGS">     -1.00000000</v>
   <i type="int" name="NEDOS">   301</i>
   <i name="EMIN">     10.00000000</i>
   <i name="EMAX">    -10.00000000</i>
   <i name="EFERMI">      0.00000000</i>
  </separator>
  <separator name="writing" >
   <i type="int" name="NWRITE">     2</i>
   <i type="logical" name="LWAVE"> F  </i>
   <i type="logical" name="LDOWNSAMPLE"> F  </i>
   <i type="logical" name="LCHARG"> F  </i>
   <i type="logical" name="LPARD"> F  </i>
   <i type="logical" name="LVTOT"> F  </i>
   <i type="logical" name="LVHAR"> F  </i>
   <i type="logical" name="LELF"> F  </i>
   <i type="logical" name="LOPTICS"> F  </i>
   <v name="STM">      0.00000000      0.00000000      0.00000000      0.00000000      0.00000000      0.00000000      0.00000000</v>
  </separator>
  <separator name="performance" >
   <i type="int" name="NPAR">    48</i>
   <i type="int" name="NSIM">     4</i>
   <i type="int" name="NBLK">    -1</i>
   <i type="logical" name="LPLANE"> T  </i>
   <i type="logical" name="LSCALAPACK"> T  </i>
   <i type="logical" name="LSCAAWARE"> T  </i>
   <i type="logical" name="LSCALU"> F  </i>
   <i type="logical" name="LASYNC"> F  </i>
   <i type="logical" name="LORBITALREAL"> F  </i>
  </separator>
  <separator name="miscellaneous" >
   <i type="int" name="IDIOT">     3</i>
   <i type="int" name="PHON_NSTRUCT">    -1</i>
   <i type="logical" name="LMUSIC"> F  </i>
   <v name="POMASS">     12.01100000</v>
   <v name="DARWINR">      0.00000000</v>
   <v name="DARWINV">      1.00000000</v>
   <i type="logical" name="LCORR"> T  </i>
  </separator>
  <i type="logical" name="GGA_COMPAT"> T  </i>
  <i type="logical" name="LBERRY"> F  </i>
  <i type="int" name="ICORELEVEL">     0</i>
  <i type="logical" name="LDAU"> F  </i>
  <i type="int" name="I_CONSTRAINED_M">     0</i>
  <separator name="electronic exchange-correlation" >
   <i type="string" name="GGA">PE</i>
   <i type="int" name="VOSKOWN">     0</i>
   <i type="logical" name="LHFCALC"> F  </i>
   <i type="string" name="PRECFOCK"></i>
   <i type="logical" name="LSYMGRAD"> F  </i>
   <i type="logical" name="LHFONE"> F  </i>
   <i type="logical" name="LRHFCALC"> F  </i>
   <i type="logical" name="LTHOMAS"> F  </i>
   <i type="logical" name="LMODELHF"> F  </i>
   <i type="logical" name="LFOCKACE"> F  </i>
   <i name="ENCUT4O">     -1.00000000</i>
   <i type="int" name="EXXOEP">     0</i>
   <i type="int" name="FOURORBIT">     0</i>
   <i name="AEXX">      0.00000000</i>
   <i name="HFALPHA">      0.00000000</i>
   <i name="MCALPHA">      0.00000000</i>
   <i name="ALDAX">      1.00000000</i>
   <i name="AGGAX">      1.00000000</i>
   <i name="ALDAC">      1.00000000</i>
   <i name="AGGAC">      1.00000000</i>
   <i type="int" name="NKREDX">     1</i>
   <i type="int" name="NKREDY">     1</i>
   <i type="int" name="NKREDZ">     1</i>
   <i type="logical" name="SHIFTRED"> F  </i>
   <i type="logical" name="ODDONLY"> F  </i>
   <i type="logical" name="EVENONLY"> F  </i>
   <i type="int" name="LMAXFOCK">     0</i>
   <i type="int" name="NMAXFOCKAE">     0</i>
   <i type="logical" name="LFOCKAEDFT"> F  </i>
   <i name="HFSCREEN">      0.00000000</i>
   <i name="HFSCREENC">      0.00000000</i>
   <i type="int" name="NBANDSGWLOW">     0</i>
  </separator>
  <separator name="vdW DFT" >
   <i type="logical" name="LUSE_VDW"> F  </i>
   <i name="Zab_VDW">     -0.84910000</i>
   <i name="PARAM1">      0.12340000</i>
   <i name="PARAM2">      1.00000000</i>
   <i name="PARAM3">      0.00000000</i>
  </separator>
  <separator name="model GW" >
   <i type="int" name="MODEL_GW">     0</i>
   <i name="MODEL_EPS0">     23.71818823</i>
   <i name="MODEL_ALPHA">      1.00000000</i>
  </separator>
  <separator name="linear response parameters" >
   <i type="logical" name="LEPSILON"> F  </i>
   <i type="logical" name="LRPA"> F  </i>
   <i type="logical" name="LNABLA"> F  </i>
   <i type="logical" name="LVEL"> F  </i>
   <i name="CSHIFT">      0.10000000</i>
   <i name="OMEGAMAX">     -1.00000000</i>
   <i name="DEG_THRESHOLD">      0.00200000</i>
   <i name="RTIME">     -0.10000000</i>
   <i name="WPLASMAI">      0.00000000</i>
   <v name="DFIELD">      0.00000000      0.00000000      0.00000000</v>
   <v name="WPLASMA">      0.00000000      0.00000000      0.00000000      0.00000000      0.00000000      0.00000000      0.00000000      0.00000000      0.00000000</v>
  </separator>
  <separator name="orbital magnetization" >
   <i type="logical" name="NUCIND"> F  </i>
   <v name="MAGPOS">      0.00000000      0.00000000      0.00000000</v>
   <i type="logical" name="LNICSALL"> T  </i>
   <i type="logical" name="ORBITALMAG"> F  </i>
   <i type="logical" name="LMAGBLOCH"> F  </i>
   <i type="logical" name="LCHIMAG"> F  </i>
   <i type="logical" name="LGAUGE"> T  </i>
   <i type="int" name="MAGATOM">     0</i>
   <v name="MAGDIPOL">      0.00000000      0.00000000      0.00000000</v>
   <v name="AVECCONST">      0.00000000      0.00000000      0.00000000</v>
  </separator>
  <separator name="response functions" >
   <i type="logical" name="LFINITE_TEMPERATURE"> F  </i>
   <i type="logical" name="LADDER"> F  </i>
   <i type="logical" name="LRPAFORCE"> F  </i>
   <i type="logical" name="LFXC"> F  </i>
   <i type="logical" name="LHARTREE"> T  </i>
   <i type="int" name="IBSE">     0</i>
   <v type="int" name="KPOINT">    -1     0     0     0</v>
   <i type="logical" name="LTCTC"> F  </i>
   <i type="logical" name="LTCTE"> F  </i>
   <i type="logical" name="LTETE"> F  </i>
   <i type="logical" name="LTRIPLET"> F  </i>
   <i type="logical" name="LFXCEPS"> F  </i>
   <i type="logical" name="LFXHEG"> F  </i>
   <i type="int" name="NATURALO">     2</i>
   <i type="logical" name="LHOLEGF"> F  </i>
   <i type="logical" name="L2ORDER"> F  </i>
   <i type="logical" name="LDMP1"> F  </i>
   <i type="logical" name="LMP2LT"> F  </i>
   <i type="logical" name="LSMP2LT"> F  </i>
   <i type="logical" name="LGWLF"> F  </i>
   <i name="ENCUTGW">     -2.00000000</i>
   <i name="ENCUTGWSOFT">     -2.00000000</i>
   <i name="ENCUTLF">     -1.00000000</i>
   <i type="logical" name="LESF_SPLINES"> F  </i>
   <i type="int" name="LMAXMP2">    -1</i>
   <i name="SCISSOR">      0.00000000</i>
   <i type="int" name="NOMEGA">     0</i>
   <i type="int" name="NOMEGAR">     0</i>
   <i type="int" name="NBANDSGW">    -1</i>
   <i type="int" name="NBANDSO">    -1</i>
   <i type="int" name="NBANDSV">    -1</i>
   <i type="int" name="NELMGW">     1</i>
   <i type="int" name="NELMHF">     1</i>
   <i type="int" name="DIM">     3</i>
   <i type="int" name="IESPILON">     4</i>
   <i type="int" name="ANTIRES">     0</i>
   <i name="OMEGAMAX">    -30.00000000</i>
   <i name="OMEGAMIN">    -30.00000000</i>
   <i name="OMEGATL">   -200.00000000</i>
   <i type="int" name="OMEGAGRID">     0</i>
   <i name="CSHIFT">     -0.10000000</i>
   <i type="logical" name="LSELFENERGY"> F  </i>
   <i type="logical" name="LSPECTRAL"> F  </i>
   <i type="logical" name="LSPECTRALGW"> F  </i>
   <i type="logical" name="LSINGLES"> F  </i>
   <i type="logical" name="LFERMIGW"> F  </i>
   <i type="logical" name="ODDONLYGW"> F  </i>
   <i type="logical" name="EVENONLYGW"> F  </i>
   <i type="int" name="NKREDLFX">     1</i>
   <i type="int" name="NKREDLFY">     1</i>
   <i type="int" name="NKREDLFZ">     1</i>
   <i type="int" name="MAXMEM">  2800</i>
   <i type="int" name="TELESCOPE">     0</i>
   <i type="int" name="NTAUPAR">    -1</i>
   <i type="int" name="NOMEGAPAR">    -1</i>
   <i name="DAMP_NEWTON">      0.80000001</i>
   <i name="LAMBDA">      1.00000000</i>
  </separator>
  <separator name="External order field" >
   <i name="OFIELD_KAPPA">      0.00000000</i>
   <v name="OFIELD_K">      0.00000000      0.00000000      0.00000000</v>
   <i name="OFIELD_Q6_NEAR">      0.00000000</i>
   <i name="OFIELD_Q6_FAR">      0.00000000</i>
   <i name="OFIELD_A">      0.00000000</i>
  </separator>
  <separator name="optional k-points parameters" >
   <i type="int" name="KPOINTS_OPT_MODE">     1</i>
   <i type="logical" name="LKPOINTS_OPT"> F  </i>
  </separator>
  <separator name="solvation model" >
   <i type="logical" name="LSOL"> F  </i>
  </separator>
 </parameters>
 <atominfo>
  <atoms>       2 </atoms>
  <types>       1 </types>
  <array name="atoms" >
   <dimension dim="1">ion</dimension>
   <field type="string">element</field>
   <field type="int">atomtype</field>
   <set>
    <rc><c>C </c><c>   1</c></rc>
    <rc><c>C </c><c>   1</c></rc>
   </set>
  </array>
  <array name="atomtypes" >
   <dimension dim="1">type</dimension>
   <field type="int">atomspertype</field>
   <field type="string">element</field>
   <field>mass</field>
   <field>valence</field>
   <field type="string">pseudopotential</field>
   <set>
    <rc><c>   2</c><c>C </c><c>     12.01100000</c><c>      4.00000000</c><c>  PAW_PBE C 08Apr2002                   </c></rc>
   </set>
  </array>
 </atominfo>
 <structure name="initialpos" >
  <crystal>
   <varray name="basis" >
    <v>       2.13648500       1.23350000       0.00000000 </v>
    <v>      -2.13648500       1.23350000       0.00000000 </v>
    <v>       0.00000000       0.00000000      15.00000000 </v>
   </varray>
   <i name="volume">     79.06062743 </i>
   <varray name="rec_basis" >
    <v>       0.23402926       0.40535063       0.00000000 </v>
    <v>      -0.23402926       0.40535063       0.00000000 </v>
    <v>       0.00000000       0.00000000       0.06666667 </v>
   </varray>
  </crystal>
  <varray name="positions" >
   <v>       0.33333300       0.66666600       0.10000000 </v>
   <v>       0.66666600       0.33333300       0.10000000 </v>
  </varray>
 </structure>
 <calculation>
  <scstep>
   <time name="dav">    1.59    1.62</time>
   <time name="total">    1.61    1.63</time>
   <energy>
    <i name="alphaZ">      4.15613782 </i>
    <i name="ewald">    835.74566894 </i>
    <i name="hartreedc">  -1054.63199152 </i>
    <i name="XCdc">     26.35432633 </i>
    <i name="pawpsdc">    217.04409276 </i>
    <i name="pawaedc">   -218.18290438 </i>
    <i name="eentropy">     -0.00002551 </i>
    <i name="bandstr">   -114.70836702 </i>
    <i name="atom">    294.28875697 </i>
    <i name="e_fr_energy">     -9.93430561 </i>
    <i name="e_wo_entrp">     -9.93428010 </i>
    <i name="e_0_energy">     -9.93429285 </i>
   </energy>
  </scstep>
  <scstep>
   <time name="dav">    2.89    2.93</time>
   <time name="total">    2.89    2.93</time>
   <energy>
    <i name="e_fr_energy">    -19.71284145 </i>
    <i name="e_wo_entrp">    -19.71263424 </i>
    <i name="e_0_energy">    -19.71273785 </i>
   </energy>
  </scstep>
  <scstep>
   <time name="dav">    1.62    1.64</time>
   <time name="total">    1.62    1.64</time>
   <energy>
    <i name="e_fr_energy">    -19.72105282 </i>
    <i name="e_wo_entrp">    -19.72084559 </i>
    <i name="e_0_energy">    -19.72094920 </i>
   </energy>
  </scstep>
  <scstep>
   <time name="dav">    4.72    4.75</time>
   <time name="total">    4.72    4.75</time>
   <energy>
    <i name="e_fr_energy">    -19.72106545 </i>
    <i name="e_wo_entrp">    -19.72085822 </i>
    <i name="e_0_energy">    -19.72096183 </i>
   </energy>
  </scstep>
  <scstep>
   <time name="dav">    1.60    1.62</time>
   <time name="total">    1.64    1.66</time>
   <energy>
    <i name="e_fr_energy">    -19.72106545 </i>
    <i name="e_wo_entrp">    -19.72085822 </i>
    <i name="e_0_energy">    -19.72096183 </i>
   </energy>
  </scstep>
  <scstep>
   <time name="dav">    2.90    2.92</time>
   <time name="total">    2.95    2.97</time>
   <energy>
    <i name="e_fr_energy">    -18.81382949 </i>
    <i name="e_wo_entrp">    -18.81362226 </i>
    <i name="e_0_energy">    -18.81372588 </i>
   </energy>
  </scstep>
  <scstep>
   <time name="dav">    3.19    3.21</time>
   <time name="total">    3.23    3.26</time>
   <energy>
    <i name="e_fr_energy">    -18.46314288 </i>
    <i name="e_wo_entrp">    -18.46293565 </i>
    <i name="e_0_energy">    -18.46303926 </i>
   </energy>
  </scstep>
  <scstep>
   <time name="dav">    3.81    3.82</time>
   <time name="total">    3.85    3.87</time>
   <energy>
    <i name="e_fr_energy">    -18.45578163 </i>
    <i name="e_wo_entrp">    -18.45557440 </i>
    <i name="e_0_energy">    -18.45567801 </i>
   </energy>
  </scstep>
  <scstep>
   <time name="dav">    3.59    3.61</time>
   <time name="total">    3.63    3.65</time>
   <energy>
    <i name="e_fr_energy">    -18.45308662 </i>
    <i name="e_wo_entrp">    -18.45287939 </i>
    <i name="e_0_energy">    -18.45298300 </i>
   </energy>
  </scstep>
  <scstep>
   <time name="dav">    3.12    3.14</time>
   <time name="total">    3.16    3.18</time>
   <energy>
    <i name="e_fr_energy">    -18.45193139 </i>
    <i name="e_wo_entrp">    -18.45172416 </i>
    <i name="e_0_energy">    -18.45182778 </i>
   </energy>
  </scstep>
  <scstep>
   <time name="dav">    2.49    2.50</time>
   <time name="total">    2.53    2.55</time>
   <energy>
    <i name="e_fr_energy">    -18.45208846 </i>
    <i name="e_wo_entrp">    -18.45188123 </i>
    <i name="e_0_energy">    -18.45198484 </i>
   </energy>
  </scstep>
  <scstep>
   <time name="dav">    2.77    2.78</time>
   <time name="total">    2.81    2.83</time>
   <energy>
    <i name="e_fr_energy">    -18.45247527 </i>
    <i name="e_wo_entrp">    -18.45226804 </i>
    <i name="e_0_energy">    -18.45237165 </i>
   </energy>
  </scstep>
  <scstep>
   <time name="dav">    3.21    3.23</time>
   <time name="total">    3.25    3.27</time>
   <energy>
    <i name="e_fr_energy">    -18.45312470 </i>
    <i name="e_wo_entrp">    -18.45291747 </i>
    <i name="e_0_energy">    -18.45302109 </i>
   </energy>
  </scstep>
  <scstep>
   <time name="dav">    3.29    3.31</time>
   <time name="total">    3.34    3.35</time>
   <energy>
    <i name="e_fr_energy">    -18.45325263 </i>
    <i name="e_wo_entrp">    -18.45304540 </i>
    <i name="e_0_energy">    -18.45314901 </i>
   </energy>
  </scstep>
  <scstep>
   <time name="dav">    3.11    3.13</time>
   <time name="total">    3.16    3.17</time>
   <energy>
    <i name="e_fr_energy">    -18.45327199 </i>
    <i name="e_wo_entrp">    -18.45306475 </i>
    <i name="e_0_energy">    -18.45316837 </i>
   </energy>
  </scstep>
  <scstep>
   <time name="dav">    2.92    2.94</time>
   <time name="total">    2.96    2.98</time>
   <energy>
    <i name="e_fr_energy">    -18.45327893 </i>
    <i name="e_wo_entrp">    -18.45307170 </i>
    <i name="e_0_energy">    -18.45317532 </i>
   </energy>
  </scstep>
  <scstep>
   <time name="dav">    2.94    2.95</time>
   <time name="total">    2.94    2.96</time>
   <energy>
    <i name="alphaZ">      4.15613782 </i>
    <i name="ewald">    835.74566894 </i>
    <i name="hartreedc">  -1087.73726560 </i>
    <i name="XCdc">     27.53615351 </i>
    <i name="pawpsdc">    845.15723900 </i>
    <i name="pawaedc">   -846.52147535 </i>
    <i name="eentropy">     -0.00020723 </i>
    <i name="bandstr">    -91.07828731 </i>
    <i name="atom">    294.28875697 </i>
    <i name="e_fr_energy">    -18.45327926 </i>
    <i name="e_wo_entrp">    -18.45307203 </i>
    <i name="e_0_energy">    -18.45317565 </i>
   </energy>
  </scstep>
  <structure>
   <crystal>
    <varray name="basis" >
     <v>       2.13648500       1.23350000       0.00000000 </v>
     <v>      -2.13648500       1.23350000       0.00000000 </v>
     <v>       0.00000000       0.00000000      15.00000000 </v>
    </varray>
    <i name="volume">     79.06062743 </i>
    <varray name="rec_basis" >
     <v>       0.23402926       0.40535063       0.00000000 </v>
     <v>      -0.23402926       0.40535063       0.00000000 </v>
     <v>       0.00000000       0.00000000       0.06666667 </v>
    </varray>
   </crystal>
   <varray name="positions" >
    <v>       0.33333300       0.66666600       0.10000000 </v>
    <v>       0.66666600       0.33333300       0.10000000 </v>
   </varray>
  </structure>
  <varray name="forces" >
   <v>       0.00000000       0.00000000      -0.00000000 </v>
   <v>      -0.00000000      -0.00000000       0.00000000 </v>
  </varray>
  <varray name="stress" >
   <v>      -0.49354680       0.00000000      -0.00000000 </v>
   <v>      -0.00000000      -0.49354665       0.00000000 </v>
   <v>      -0.00000000      -0.00000000      -1.37181387 </v>
  </varray>
  <energy>
   <i name="e_fr_energy">    -18.63069775 </i>
   <i name="e_wo_entrp">    -18.63049052 </i>
   <i name="e_0_energy">    -18.63059414 </i>
  </energy>
  <time name="totalsc">   50.77   51.13</time>
  <eigenvalues>
   <array>
    <dimension dim="1">band</dimension>
    <dimension dim="2">kpoint</dimension>
    <dimension dim="3">spin</dimension>
    <field>eigene</field>
    <field>occ</field>
    <set>
     <set comment="spin 1">
      <set comment="kpoint 1">
       <r>  -21.7571    1.0000 </r>
       <r>   -9.8606    1.0000 </r>
       <r>   -5.2826    1.0000 </r>
       <r>   -5.2826    1.0000 </r>
       <r>    1.0084    0.0000 </r>
       <r>    1.9135    0.0000 </r>
       <r>    2.4487    0.0000 </r>
       <r>    4.3406    0.0000 </r>
       <r>    5.0993    0.0000 </r>
       <r>    6.0630    0.0000 </r>
       <r>    6.0631    0.0000 </r>
       <r>    8.2381    0.0000 </r>
       <r>    9.1612    0.0000 </r>
       <r>    9.3517    0.0000 </r>
       <r>   10.2179    0.0000 </r>
       <r>   13.5628    0.0000 </r>
       <r>   15.0724    0.0000 </r>
       <r>   20.1265    0.0000 </r>
       <r>   20.2259    0.0000 </r>
       <r>   22.2220    0.0000 </r>
       <r>   25.9180    0.0000 </r>
       <r>   25.9180    0.0000 </r>
       <r>   27.1173    0.0000 </r>
       <r>   29.3325    0.0000 </r>
       <r>   29.3325    0.0000 </r>
       <r>   30.7216    0.0000 </r>
       <r>   31.4541    0.0000 </r>
       <r>   32.9459    0.0000 </r>
       <r>   32.9459    0.0000 </r>
       <r>   33.4523    0.0000 </r>
       <r>   33.4523    0.0000 </r>
       <r>   33.9408    0.0000 </r>
       <r>   34.1977    0.0000 </r>
       <r>   34.4800    0.0000 </r>
       <r>   35.1285    0.0000 </r>
       <r>   35.1285    0.0000 </r>
       <r>   35.2202    0.0000 </r>
       <r>   35.2202    0.0000 </r>
       <r>   35.2731    0.0000 </r>
       <r>   35.2731    0.0000 </r>
       <r>   35.3030    0.0000 </r>
       <r>   35.4029    0.0000 </r>
       <r>   35.4158    0.0000 </r>
       <r>   35.4158    0.0000 </r>
       <r>   35.6370    0.0000 </r>
       <r>   36.7427    0.0000 </r>
       <r>   37.3410    0.0000 </r>
       <r>   37.4552    0.0000 </r>
      </set>
      <set comment="kpoint 2">
       <r>  -21.7354    1.0000 </r>
       <r>   -9.8348    1.0000 </r>
       <r>   -5.3726    1.0000 </r>
       <r>   -5.3301    1.0000 </r>
       <r>    1.0379    0.0000 </r>
       <r>    1.9432    0.0000 </r>
       <r>    2.4787    0.0000 </r>
       <r>    4.3700    0.0000 </r>
       <r>    5.1281    0.0000 </r>
       <r>    6.0781    0.0000 </r>
       <r>    6.1586    0.0000 </r>
       <r>    8.2666    0.0000 </r>
       <r>    9.0845    0.0000 </r>
       <r>    9.3815    0.0000 </r>
       <r>   10.2563    0.0000 </r>
       <r>   13.5892    0.0000 </r>
       <r>   15.1017    0.0000 </r>
       <r>   20.1426    0.0000 </r>
       <r>   20.2978    0.0000 </r>
       <r>   22.2504    0.0000 </r>
       <r>   25.6843    0.0000 </r>
       <r>   25.6934    0.0000 </r>
       <r>   26.9651    0.0000 </r>
       <r>   29.3923    0.0000 </r>
       <r>   29.6187    0.0000 </r>
       <r>   30.7482    0.0000 </r>
       <r>   31.5773    0.0000 </r>
       <r>   31.9257    0.0000 </r>
       <r>   32.2263    0.0000 </r>
       <r>   32.9700    0.0000 </r>
       <r>   33.0910    0.0000 </r>
       <r>   33.3397    0.0000 </r>
       <r>   34.0664    0.0000 </r>
       <r>   34.1699    0.0000 </r>
       <r>   34.3101    0.0000 </r>
       <r>   34.3380    0.0000 </r>
       <r>   34.3831    0.0000 </r>
       <r>   34.7857    0.0000 </r>
       <r>   35.3617    0.0000 </r>
       <r>   35.5906    0.0000 </r>
       <r>   35.8798    0.0000 </r>
       <r>   36.0731    0.0000 </r>
       <r>   36.2641    0.0000 </r>
       <r>   36.2664    0.0000 </r>
       <r>   36.4560    0.0000 </r>
       <r>   36.4878    0.0000 </r>
       <r>   36.5721    0.0000 </r>
       <r>   36.9030    0.0000 </r>
      </set>
      <set comment="kpoint 3">
       <r>  -21.6703    1.0000 </r>
       <r>   -9.7571    1.0000 </r>
       <r>   -5.6355    1.0000 </r>
       <r>   -5.4675    1.0000 </r>
       <r>    1.1262    0.0000 </r>
       <r>    2.0323    0.0000 </r>
       <r>    2.5687    0.0000 </r>
       <r>    4.4585    0.0000 </r>
       <r>    5.2142    0.0000 </r>
       <r>    6.1119    0.0000 </r>
       <r>    6.4377    0.0000 </r>
       <r>    8.3524    0.0000 </r>
       <r>    8.8587    0.0000 </r>
       <r>    9.4708    0.0000 </r>
       <r>   10.3757    0.0000 </r>
       <r>   13.6683    0.0000 </r>
       <r>   15.1893    0.0000 </r>
       <r>   20.1860    0.0000 </r>
       <r>   20.5065    0.0000 </r>
       <r>   22.3359    0.0000 </r>
       <r>   24.9577    0.0000 </r>
       <r>   25.1372    0.0000 </r>
       <r>   26.9148    0.0000 </r>
       <r>   29.4765    0.0000 </r>
       <r>   29.8344    0.0000 </r>
       <r>   30.3163    0.0000 </r>
       <r>   30.8289    0.0000 </r>
       <r>   31.3517    0.0000 </r>
       <r>   31.3555    0.0000 </r>
       <r>   31.4394    0.0000 </r>
       <r>   32.1964    0.0000 </r>
       <r>   33.0542    0.0000 </r>
       <r>   33.1474    0.0000 </r>
       <r>   33.3719    0.0000 </r>
       <r>   33.4321    0.0000 </r>
       <r>   33.5223    0.0000 </r>
       <r>   33.8982    0.0000 </r>
       <r>   33.9200    0.0000 </r>
       <r>   35.2342    0.0000 </r>
       <r>   35.5205    0.0000 </r>
       <r>   35.7013    0.0000 </r>
       <r>   35.9459    0.0000 </r>
       <r>   35.9527    0.0000 </r>
       <r>   36.1176    0.0000 </r>
       <r>   36.8595    0.0000 </r>
       <r>   37.3510    0.0000 </r>
       <r>   37.3839    0.0000 </r>
       <r>   37.4068    0.0000 </r>
      </set>
      <set comment="kpoint 4">
       <r>  -21.5620    1.0000 </r>
       <r>   -9.6280    1.0000 </r>
       <r>   -6.0503    1.0000 </r>
       <r>   -5.6798    1.0000 </r>
       <r>    1.2734    0.0000 </r>
       <r>    2.1806    0.0000 </r>
       <r>    2.7186    0.0000 </r>
       <r>    4.6059    0.0000 </r>
       <r>    5.3572    0.0000 </r>
       <r>    6.1437    0.0000 </r>
       <r>    6.8854    0.0000 </r>
       <r>    8.4807    0.0000 </r>
       <r>    8.5098    0.0000 </r>
       <r>    9.6189    0.0000 </r>
       <r>   10.5846    0.0000 </r>
       <r>   13.7988    0.0000 </r>
       <r>   15.3347    0.0000 </r>
       <r>   20.2364    0.0000 </r>
       <r>   20.8290    0.0000 </r>
       <r>   22.4806    0.0000 </r>
       <r>   23.9819    0.0000 </r>
       <r>   24.4779    0.0000 </r>
       <r>   27.0571    0.0000 </r>
       <r>   28.1146    0.0000 </r>
       <r>   29.3432    0.0000 </r>
       <r>   29.6309    0.0000 </r>
       <r>   29.8279    0.0000 </r>
       <r>   30.5298    0.0000 </r>
       <r>   30.9581    0.0000 </r>
       <r>   31.1759    0.0000 </r>
       <r>   31.3800    0.0000 </r>
       <r>   31.9098    0.0000 </r>
       <r>   32.1681    0.0000 </r>
       <r>   32.5291    0.0000 </r>
       <r>   32.6633    0.0000 </r>
       <r>   32.7023    0.0000 </r>
       <r>   32.7442    0.0000 </r>
       <r>   34.4102    0.0000 </r>
       <r>   34.8244    0.0000 </r>
       <r>   34.8529    0.0000 </r>
       <r>   35.1440    0.0000 </r>
       <r>   35.3724    0.0000 </r>
       <r>   36.0396    0.0000 </r>
       <r>   36.0609    0.0000 </r>
       <r>   36.3580    0.0000 </r>
       <r>   37.3568    0.0000 </r>
       <r>   38.0756    0.0000 </r>
       <r>   38.3286    0.0000 </r>
      </set>
      <set comment="kpoint 5">
       <r>  -21.4105    1.0000 </r>
       <r>   -9.4479    1.0000 </r>
       <r>   -6.5904    1.0000 </r>
       <r>   -5.9481    1.0000 </r>
       <r>    1.4796    0.0000 </r>
       <r>    2.3882    0.0000 </r>
       <r>    2.9286    0.0000 </r>
       <r>    4.8119    0.0000 </r>
       <r>    5.5547    0.0000 </r>
       <r>    6.1567    0.0000 </r>
       <r>    7.4816    0.0000 </r>
       <r>    8.0083    0.0000 </r>
       <r>    8.6961    0.0000 </r>
       <r>    9.8250    0.0000 </r>
       <r>   10.8879    0.0000 </r>
       <r>   13.9785    0.0000 </r>
       <r>   15.5371    0.0000 </r>
       <r>   20.2427    0.0000 </r>
       <r>   21.2225    0.0000 </r>
       <r>   22.6887    0.0000 </r>
       <r>   23.0446    0.0000 </r>
       <r>   23.8016    0.0000 </r>
       <r>   26.4581    0.0000 </r>
       <r>   27.1410    0.0000 </r>
       <r>   27.8782    0.0000 </r>
       <r>   27.9699    0.0000 </r>
       <r>   29.6628    0.0000 </r>
       <r>   29.7582    0.0000 </r>
       <r>   30.3263    0.0000 </r>
       <r>   30.3733    0.0000 </r>
       <r>   30.7748    0.0000 </r>
       <r>   31.1647    0.0000 </r>
       <r>   31.5253    0.0000 </r>
       <r>   31.7450    0.0000 </r>
       <r>   31.9684    0.0000 </r>
       <r>   32.0177    0.0000 </r>
       <r>   32.5517    0.0000 </r>
       <r>   33.9265    0.0000 </r>
       <r>   34.0519    0.0000 </r>
       <r>   34.4268    0.0000 </r>
       <r>   34.4294    0.0000 </r>
       <r>   34.6392    0.0000 </r>
       <r>   34.7881    0.0000 </r>
       <r>   35.9885    0.0000 </r>
       <r>   37.4702    0.0000 </r>
       <r>   37.9330    0.0000 </r>
       <r>   38.0688    0.0000 </r>
       <r>   38.1352    0.0000 </r>
      </set>
      <set comment="kpoint 6">
       <r>  -21.2161    1.0000 </r>
       <r>   -9.2175    1.0000 </r>
       <r>   -7.2270    1.0000 </r>
       <r>   -6.2523    1.0000 </r>
       <r>    1.7445    0.0000 </r>
       <r>    2.6546    0.0000 </r>
       <r>    3.1985    0.0000 </r>
       <r>    5.0760    0.0000 </r>
       <r>    5.7928    0.0000 </r>
       <r>    6.1512    0.0000 </r>
       <r>    7.4178    0.0000 </r>
       <r>    8.2014    0.0000 </r>
       <r>    8.9520    0.0000 </r>
       <r>   10.0885    0.0000 </r>
       <r>   11.2793    0.0000 </r>
       <r>   14.2039    0.0000 </r>
       <r>   15.7956    0.0000 </r>
       <r>   20.0887    0.0000 </r>
       <r>   21.6023    0.0000 </r>
       <r>   22.3350    0.0000 </r>
       <r>   22.9629    0.0000 </r>
       <r>   23.1469    0.0000 </r>
       <r>   24.9117    0.0000 </r>
       <r>   26.0659    0.0000 </r>
       <r>   26.1969    0.0000 </r>
       <r>   27.4770    0.0000 </r>
       <r>   28.7656    0.0000 </r>
       <r>   28.9421    0.0000 </r>
       <r>   29.0424    0.0000 </r>
       <r>   29.6500    0.0000 </r>
       <r>   30.0178    0.0000 </r>
       <r>   30.9487    0.0000 </r>
       <r>   31.0205    0.0000 </r>
       <r>   31.2319    0.0000 </r>
       <r>   31.4248    0.0000 </r>
       <r>   31.5565    0.0000 </r>
       <r>   32.7392    0.0000 </r>
       <r>   32.9208    0.0000 </r>
       <r>   33.1463    0.0000 </r>
       <r>   33.3330    0.0000 </r>
       <r>   33.8056    0.0000 </r>
       <r>   34.0415    0.0000 </r>
       <r>   34.1305    0.0000 </r>
       <r>   36.6847    0.0000 </r>
       <r>   37.3505    0.0000 </r>
       <r>   37.7296    0.0000 </r>
       <r>   37.8557    0.0000 </r>
       <r>   38.1203    0.0000 </r>
      </set>
      <set comment="kpoint 7">
       <r>  -20.9792    1.0000 </r>
       <r>   -8.9377    1.0000 </r>
       <r>   -7.9335    1.0000 </r>
       <r>   -6.5743    1.0000 </r>
       <r>    2.0682    0.0000 </r>
       <r>    2.9795    0.0000 </r>
       <r>    3.5283    0.0000 </r>
       <r>    5.3961    0.0000 </r>
       <r>    5.9521    0.0000 </r>
       <r>    6.2473    0.0000 </r>
       <r>    6.7450    0.0000 </r>
       <r>    9.0241    0.0000 </r>
       <r>    9.2635    0.0000 </r>
       <r>   10.4088    0.0000 </r>
       <r>   11.7417    0.0000 </r>
       <r>   14.4689    0.0000 </r>
       <r>   16.1093    0.0000 </r>
       <r>   19.6478    0.0000 </r>
       <r>   21.7477    0.0000 </r>
       <r>   21.9806    0.0000 </r>
       <r>   22.5307    0.0000 </r>
       <r>   23.2133    0.0000 </r>
       <r>   23.6924    0.0000 </r>
       <r>   24.5743    0.0000 </r>
       <r>   24.6360    0.0000 </r>
       <r>   26.7017    0.0000 </r>
       <r>   27.2223    0.0000 </r>
       <r>   28.2602    0.0000 </r>
       <r>   28.3834    0.0000 </r>
       <r>   29.3694    0.0000 </r>
       <r>   29.5297    0.0000 </r>
       <r>   30.3143    0.0000 </r>
       <r>   30.3559    0.0000 </r>
       <r>   30.5779    0.0000 </r>
       <r>   31.2146    0.0000 </r>
       <r>   31.4029    0.0000 </r>
       <r>   31.4283    0.0000 </r>
       <r>   31.7170    0.0000 </r>
       <r>   32.6712    0.0000 </r>
       <r>   32.7971    0.0000 </r>
       <r>   33.4055    0.0000 </r>
       <r>   33.4293    0.0000 </r>
       <r>   34.9918    0.0000 </r>
       <r>   36.2825    0.0000 </r>
       <r>   36.6887    0.0000 </r>
       <r>   36.8368    0.0000 </r>
       <r>   36.8448    0.0000 </r>
       <r>   37.2639    0.0000 </r>
      </set>
      <set comment="kpoint 8">
       <r>  -20.7000    1.0000 </r>
       <r>   -8.6880    1.0000 </r>
       <r>   -8.6099    1.0000 </r>
       <r>   -6.8991    1.0000 </r>
       <r>    2.4504    0.0000 </r>
       <r>    3.3614    0.0000 </r>
       <r>    3.9178    0.0000 </r>
       <r>    5.7377    0.0000 </r>
       <r>    5.9065    0.0000 </r>
       <r>    6.0429    0.0000 </r>
       <r>    6.5790    0.0000 </r>
       <r>    9.6294    0.0000 </r>
       <r>    9.9293    0.0000 </r>
       <r>   10.7859    0.0000 </r>
       <r>   12.2465    0.0000 </r>
       <r>   14.7620    0.0000 </r>
       <r>   16.4769    0.0000 </r>
       <r>   18.9927    0.0000 </r>
       <r>   21.1113    0.0000 </r>
       <r>   21.7982    0.0000 </r>
       <r>   21.9616    0.0000 </r>
       <r>   22.6278    0.0000 </r>
       <r>   23.2497    0.0000 </r>
       <r>   23.3040    0.0000 </r>
       <r>   23.9541    0.0000 </r>
       <r>   25.4255    0.0000 </r>
       <r>   25.8133    0.0000 </r>
       <r>   27.7815    0.0000 </r>
       <r>   27.8596    0.0000 </r>
       <r>   28.7645    0.0000 </r>
       <r>   29.3149    0.0000 </r>
       <r>   29.7224    0.0000 </r>
       <r>   29.7511    0.0000 </r>
       <r>   29.7953    0.0000 </r>
       <r>   30.1492    0.0000 </r>
       <r>   30.4161    0.0000 </r>
       <r>   30.9457    0.0000 </r>
       <r>   32.0572    0.0000 </r>
       <r>   32.0670    0.0000 </r>
       <r>   32.2464    0.0000 </r>
       <r>   32.8422    0.0000 </r>
       <r>   33.2767    0.0000 </r>
       <r>   35.2125    0.0000 </r>
       <r>   35.4228    0.0000 </r>
       <r>   35.9068    0.0000 </r>
       <r>   36.0803    0.0000 </r>
       <r>   36.3643    0.0000 </r>
       <r>   37.0202    0.0000 </r>
      </set>
      <set comment="kpoint 9">
       <r>  -20.3791    1.0000 </r>
       <r>   -9.4724    1.0000 </r>
       <r>   -8.2360    1.0000 </r>
       <r>   -7.2144    1.0000 </r>
       <r>    2.8909    0.0000 </r>
       <r>    3.7950    0.0000 </r>
       <r>    4.3669    0.0000 </r>
       <r>    5.1941    0.0000 </r>
       <r>    5.8047    0.0000 </r>
       <r>    6.2411    0.0000 </r>
       <r>    7.0082    0.0000 </r>
       <r>   10.0479    0.0000 </r>
       <r>   10.8982    0.0000 </r>
       <r>   11.2195    0.0000 </r>
       <r>   12.7579    0.0000 </r>
       <r>   15.0592    0.0000 </r>
       <r>   16.8965    0.0000 </r>
       <r>   18.2836    0.0000 </r>
       <r>   19.9101    0.0000 </r>
       <r>   21.1555    0.0000 </r>
       <r>   21.3079    0.0000 </r>
       <r>   21.4440    0.0000 </r>
       <r>   22.5034    0.0000 </r>
       <r>   23.0806    0.0000 </r>
       <r>   24.0505    0.0000 </r>
       <r>   24.2484    0.0000 </r>
       <r>   24.9507    0.0000 </r>
       <r>   27.1589    0.0000 </r>
       <r>   27.2370    0.0000 </r>
       <r>   28.0739    0.0000 </r>
       <r>   28.6687    0.0000 </r>
       <r>   28.7120    0.0000 </r>
       <r>   29.1850    0.0000 </r>
       <r>   29.2063    0.0000 </r>
       <r>   29.5263    0.0000 </r>
       <r>   30.1471    0.0000 </r>
       <r>   30.6746    0.0000 </r>
       <r>   31.5205    0.0000 </r>
       <r>   31.7225    0.0000 </r>
       <r>   32.1568    0.0000 </r>
       <r>   32.6297    0.0000 </r>
       <r>   33.1205    0.0000 </r>
       <r>   34.0413    0.0000 </r>
       <r>   34.1623    0.0000 </r>
       <r>   35.5246    0.0000 </r>
       <r>   35.8221    0.0000 </r>
       <r>   36.2248    0.0000 </r>
       <r>   36.5848    0.0000 </r>
      </set>
      <set comment="kpoint 10">
       <r>  -20.0172    1.0000 </r>
       <r>  -10.2722    1.0000 </r>
       <r>   -7.8185    1.0000 </r>
       <r>   -7.5111    1.0000 </r>
       <r>    3.3891    0.0000 </r>
       <r>    4.1551    0.0000 </r>
       <r>    4.5141    0.0000 </r>
       <r>    4.8740    0.0000 </r>
       <r>    5.6905    0.0000 </r>
       <r>    6.7322    0.0000 </r>
       <r>    7.5029    0.0000 </r>
       <r>   10.5164    0.0000 </r>
       <r>   11.7090    0.0000 </r>
       <r>   11.9117    0.0000 </r>
       <r>   13.2196    0.0000 </r>
       <r>   15.3034    0.0000 </r>
       <r>   17.3630    0.0000 </r>
       <r>   17.6180    0.0000 </r>
       <r>   18.6624    0.0000 </r>
       <r>   19.9110    0.0000 </r>
       <r>   20.0350    0.0000 </r>
       <r>   20.9806    0.0000 </r>
       <r>   21.9454    0.0000 </r>
       <r>   22.3205    0.0000 </r>
       <r>   23.5961    0.0000 </r>
       <r>   23.8947    0.0000 </r>
       <r>   25.1357    0.0000 </r>
       <r>   26.2121    0.0000 </r>
       <r>   26.7493    0.0000 </r>
       <r>   27.0288    0.0000 </r>
       <r>   28.0188    0.0000 </r>
       <r>   28.0982    0.0000 </r>
       <r>   28.7055    0.0000 </r>
       <r>   28.7213    0.0000 </r>
       <r>   29.0405    0.0000 </r>
       <r>   29.8762    0.0000 </r>
       <r>   30.6119    0.0000 </r>
       <r>   31.0313    0.0000 </r>
       <r>   31.2493    0.0000 </r>
       <r>   31.7037    0.0000 </r>
       <r>   32.6338    0.0000 </r>
       <r>   32.6455    0.0000 </r>
       <r>   33.1558    0.0000 </r>
       <r>   33.6091    0.0000 </r>
       <r>   35.0192    0.0000 </r>
       <r>   35.4164    0.0000 </r>
       <r>   36.0989    0.0000 </r>
       <r>   36.3150    0.0000 </r>
      </set>
      <set comment="kpoint 11">
       <r>  -19.6151    1.0000 </r>
       <r>  -11.0759    1.0000 </r>
       <r>   -7.7822    1.0000 </r>
       <r>   -7.3615    1.0000 </r>
       <r>    3.4816    0.0000 </r>
       <r>    3.9440    0.0000 </r>
       <r>    4.9050    0.0000 </r>
       <r>    5.4148    0.0000 </r>
       <r>    5.6015    0.0000 </r>
       <r>    7.2848    0.0000 </r>
       <r>    8.0580    0.0000 </r>
       <r>   11.0300    0.0000 </r>
       <r>   12.2532    0.0000 </r>
       <r>   12.9467    0.0000 </r>
       <r>   13.5370    0.0000 </r>
       <r>   15.3516    0.0000 </r>
       <r>   17.0849    0.0000 </r>
       <r>   17.4792    0.0000 </r>
       <r>   17.9003    0.0000 </r>
       <r>   18.6021    0.0000 </r>
       <r>   18.9468    0.0000 </r>
       <r>   20.5731    0.0000 </r>
       <r>   21.0229    0.0000 </r>
       <r>   21.1687    0.0000 </r>
       <r>   23.4527    0.0000 </r>
       <r>   23.8720    0.0000 </r>
       <r>   25.2818    0.0000 </r>
       <r>   25.3295    0.0000 </r>
       <r>   26.2130    0.0000 </r>
       <r>   26.3178    0.0000 </r>
       <r>   27.5847    0.0000 </r>
       <r>   27.6222    0.0000 </r>
       <r>   28.2850    0.0000 </r>
       <r>   28.2960    0.0000 </r>
       <r>   28.6176    0.0000 </r>
       <r>   29.3778    0.0000 </r>
       <r>   30.4518    0.0000 </r>
       <r>   30.5986    0.0000 </r>
       <r>   30.8324    0.0000 </r>
       <r>   31.0895    0.0000 </r>
       <r>   31.6028    0.0000 </r>
       <r>   32.2867    0.0000 </r>
       <r>   33.3243    0.0000 </r>
       <r>   33.6726    0.0000 </r>
       <r>   34.5600    0.0000 </r>
       <r>   35.0211    0.0000 </r>
       <r>   35.6676    0.0000 </r>
       <r>   36.4329    0.0000 </r>
      </set>
      <set comment="kpoint 12">
       <r>  -19.1739    1.0000 </r>
       <r>  -11.8739    1.0000 </r>
       <r>   -8.0225    1.0000 </r>
       <r>   -6.8709    1.0000 </r>
       <r>    2.6498    0.0000 </r>
       <r>    4.5518    0.0000 </r>
       <r>    5.4498    0.0000 </r>
       <r>    5.5117    0.0000 </r>
       <r>    6.0886    0.0000 </r>
       <r>    7.8941    0.0000 </r>
       <r>    8.6717    0.0000 </r>
       <r>   11.5797    0.0000 </r>
       <r>   12.8483    0.0000 </r>
       <r>   13.5433    0.0000 </r>
       <r>   13.9798    0.0000 </r>
       <r>   15.0043    0.0000 </r>
       <r>   16.4753    0.0000 </r>
       <r>   16.7120    0.0000 </r>
       <r>   17.4573    0.0000 </r>
       <r>   18.0976    0.0000 </r>
       <r>   18.4536    0.0000 </r>
       <r>   20.0521    0.0000 </r>
       <r>   20.1087    0.0000 </r>
       <r>   20.2226    0.0000 </r>
       <r>   23.0639    0.0000 </r>
       <r>   23.5092    0.0000 </r>
       <r>   24.9016    0.0000 </r>
       <r>   24.9673    0.0000 </r>
       <r>   25.9416    0.0000 </r>
       <r>   26.2480    0.0000 </r>
       <r>   27.1053    0.0000 </r>
       <r>   27.3704    0.0000 </r>
       <r>   27.9242    0.0000 </r>
       <r>   27.9304    0.0000 </r>
       <r>   28.2468    0.0000 </r>
       <r>   28.7461    0.0000 </r>
       <r>   30.0524    0.0000 </r>
       <r>   30.0924    0.0000 </r>
       <r>   30.2215    0.0000 </r>
       <r>   30.4737    0.0000 </r>
       <r>   31.0458    0.0000 </r>
       <r>   32.4013    0.0000 </r>
       <r>   33.0393    0.0000 </r>
       <r>   34.1399    0.0000 </r>
       <r>   34.2581    0.0000 </r>
       <r>   34.6724    0.0000 </r>
       <r>   35.3240    0.0000 </r>
       <r>   36.1532    0.0000 </r>
      </set>
      <set comment="kpoint 13">
       <r>  -18.6955    1.0000 </r>
       <r>  -12.6580    1.0000 </r>
       <r>   -8.2279    1.0000 </r>
       <r>   -6.3560    1.0000 </r>
       <r>    1.8306    0.0000 </r>
       <r>    5.1600    0.0000 </r>
       <r>    5.4163    0.0000 </r>
       <r>    6.1828    0.0000 </r>
       <r>    6.7731    0.0000 </r>
       <r>    8.5577    0.0000 </r>
       <r>    9.3426    0.0000 </r>
       <r>   12.1419    0.0000 </r>
       <r>   13.0752    0.0000 </r>
       <r>   13.5182    0.0000 </r>
       <r>   14.3147    0.0000 </r>
       <r>   14.9803    0.0000 </r>
       <r>   15.4514    0.0000 </r>
       <r>   16.2023    0.0000 </r>
       <r>   16.7018    0.0000 </r>
       <r>   17.6081    0.0000 </r>
       <r>   18.8781    0.0000 </r>
       <r>   19.2699    0.0000 </r>
       <r>   19.4717    0.0000 </r>
       <r>   19.9297    0.0000 </r>
       <r>   22.2969    0.0000 </r>
       <r>   22.6951    0.0000 </r>
       <r>   24.6968    0.0000 </r>
       <r>   25.1327    0.0000 </r>
       <r>   25.6200    0.0000 </r>
       <r>   26.3520    0.0000 </r>
       <r>   26.6047    0.0000 </r>
       <r>   27.3394    0.0000 </r>
       <r>   27.6232    0.0000 </r>
       <r>   27.6242    0.0000 </r>
       <r>   27.9075    0.0000 </r>
       <r>   28.1188    0.0000 </r>
       <r>   29.1393    0.0000 </r>
       <r>   29.6696    0.0000 </r>
       <r>   29.8991    0.0000 </r>
       <r>   30.1742    0.0000 </r>
       <r>   30.6845    0.0000 </r>
       <r>   32.5159    0.0000 </r>
       <r>   32.8599    0.0000 </r>
       <r>   33.7493    0.0000 </r>
       <r>   34.3783    0.0000 </r>
       <r>   34.6091    0.0000 </r>
       <r>   35.2134    0.0000 </r>
       <r>   35.5959    0.0000 </r>
      </set>
      <set comment="kpoint 14">
       <r>  -18.1827    1.0000 </r>
       <r>  -13.4204    1.0000 </r>
       <r>   -8.3953    1.0000 </r>
       <r>   -5.8330    1.0000 </r>
       <r>    1.0536    0.0000 </r>
       <r>    5.2331    0.0000 </r>
       <r>    5.9866    0.0000 </r>
       <r>    6.9111    0.0000 </r>
       <r>    7.5204    0.0000 </r>
       <r>    9.2723    0.0000 </r>
       <r>   10.0695    0.0000 </r>
       <r>   12.2892    0.0000 </r>
       <r>   12.5935    0.0000 </r>
       <r>   13.5651    0.0000 </r>
       <r>   14.2019    0.0000 </r>
       <r>   14.3443    0.0000 </r>
       <r>   15.4760    0.0000 </r>
       <r>   15.9047    0.0000 </r>
       <r>   16.0991    0.0000 </r>
       <r>   17.2364    0.0000 </r>
       <r>   18.4469    0.0000 </r>
       <r>   19.2238    0.0000 </r>
       <r>   19.6859    0.0000 </r>
       <r>   19.6949    0.0000 </r>
       <r>   21.5579    0.0000 </r>
       <r>   21.8202    0.0000 </r>
       <r>   24.5616    0.0000 </r>
       <r>   25.2575    0.0000 </r>
       <r>   25.3529    0.0000 </r>
       <r>   26.2044    0.0000 </r>
       <r>   26.2332    0.0000 </r>
       <r>   27.3332    0.0000 </r>
       <r>   27.3775    0.0000 </r>
       <r>   27.3823    0.0000 </r>
       <r>   27.5328    0.0000 </r>
       <r>   27.6866    0.0000 </r>
       <r>   28.6946    0.0000 </r>
       <r>   29.3678    0.0000 </r>
       <r>   29.6312    0.0000 </r>
       <r>   29.9343    0.0000 </r>
       <r>   30.4060    0.0000 </r>
       <r>   32.1311    0.0000 </r>
       <r>   33.0013    0.0000 </r>
       <r>   33.3776    0.0000 </r>
       <r>   34.1416    0.0000 </r>
       <r>   34.3916    0.0000 </r>
       <r>   34.6977    0.0000 </r>
       <r>   35.2604    0.0000 </r>
      </set>
      <set comment="kpoint 15">
       <r>  -17.6418    1.0000 </r>
       <r>  -14.1515    1.0000 </r>
       <r>   -8.5227    1.0000 </r>
       <r>   -5.3315    1.0000 </r>
       <r>    0.3555    0.0000 </r>
       <r>    5.1772    0.0000 </r>
       <r>    6.7589    0.0000 </r>
       <r>    7.6933    0.0000 </r>
       <r>    8.3274    0.0000 </r>
       <r>   10.0308    0.0000 </r>
       <r>   10.8478    0.0000 </r>
       <r>   11.3512    0.0000 </r>
       <r>   12.2161    0.0000 </r>
       <r>   13.2190    0.0000 </r>
       <r>   13.5047    0.0000 </r>
       <r>   14.7217    0.0000 </r>
       <r>   14.9402    0.0000 </r>
       <r>   15.3315    0.0000 </r>
       <r>   16.6948    0.0000 </r>
       <r>   16.8488    0.0000 </r>
       <r>   18.1484    0.0000 </r>
       <r>   19.0930    0.0000 </r>
       <r>   19.5184    0.0000 </r>
       <r>   20.1197    0.0000 </r>
       <r>   21.1617    0.0000 </r>
       <r>   21.2250    0.0000 </r>
       <r>   24.3677    0.0000 </r>
       <r>   24.7823    0.0000 </r>
       <r>   25.1413    0.0000 </r>
       <r>   26.0113    0.0000 </r>
       <r>   26.2865    0.0000 </r>
       <r>   26.7815    0.0000 </r>
       <r>   27.1905    0.0000 </r>
       <r>   27.2015    0.0000 </r>
       <r>   27.3863    0.0000 </r>
       <r>   27.5557    0.0000 </r>
       <r>   28.9852    0.0000 </r>
       <r>   29.1256    0.0000 </r>
       <r>   29.4188    0.0000 </r>
       <r>   29.7542    0.0000 </r>
       <r>   30.2058    0.0000 </r>
       <r>   31.5790    0.0000 </r>
       <r>   33.0245    0.0000 </r>
       <r>   33.0251    0.0000 </r>
       <r>   33.4967    0.0000 </r>
       <r>   33.9634    0.0000 </r>
       <r>   34.3933    0.0000 </r>
       <r>   35.3416    0.0000 </r>
      </set>
      <set comment="kpoint 16">
       <r>  -17.0905    1.0000 </r>
       <r>  -14.8309    1.0000 </r>
       <r>   -8.6083    1.0000 </r>
       <r>   -4.9057    1.0000 </r>
       <r>   -0.2037    0.0000 </r>
       <r>    5.1349    0.0000 </r>
       <r>    7.5905    0.0000 </r>
       <r>    8.5254    0.0000 </r>
       <r>    9.1931    0.0000 </r>
       <r>   10.3704    0.0000 </r>
       <r>   10.7832    0.0000 </r>
       <r>   11.3636    0.0000 </r>
       <r>   11.6858    0.0000 </r>
       <r>   12.1357    0.0000 </r>
       <r>   13.3868    0.0000 </r>
       <r>   14.4158    0.0000 </r>
       <r>   14.4482    0.0000 </r>
       <r>   15.7211    0.0000 </r>
       <r>   16.5121    0.0000 </r>
       <r>   17.2871    0.0000 </r>
       <r>   17.8084    0.0000 </r>
       <r>   18.8098    0.0000 </r>
       <r>   19.4008    0.0000 </r>
       <r>   20.0982    0.0000 </r>
       <r>   21.2447    0.0000 </r>
       <r>   21.3304    0.0000 </r>
       <r>   24.0955    0.0000 </r>
       <r>   24.0970    0.0000 </r>
       <r>   24.9911    0.0000 </r>
       <r>   25.7426    0.0000 </r>
       <r>   26.3260    0.0000 </r>
       <r>   26.4273    0.0000 </r>
       <r>   27.0644    0.0000 </r>
       <r>   27.0810    0.0000 </r>
       <r>   27.2797    0.0000 </r>
       <r>   27.7637    0.0000 </r>
       <r>   28.9061    0.0000 </r>
       <r>   29.2678    0.0000 </r>
       <r>   29.5493    0.0000 </r>
       <r>   29.6340    0.0000 </r>
       <r>   30.1188    0.0000 </r>
       <r>   31.0165    0.0000 </r>
       <r>   32.5221    0.0000 </r>
       <r>   32.7286    0.0000 </r>
       <r>   32.9632    0.0000 </r>
       <r>   33.8445    0.0000 </r>
       <r>   34.2594    0.0000 </r>
       <r>   34.9868    0.0000 </r>
      </set>
      <set comment="kpoint 17">
       <r>  -16.6144    1.0000 </r>
       <r>  -15.3714    1.0000 </r>
       <r>   -8.6514    1.0000 </r>
       <r>   -4.6464    1.0000 </r>
       <r>   -0.5306    0.0000 </r>
       <r>    5.1131    0.0000 </r>
       <r>    8.4701    0.0000 </r>
       <r>    9.3945    0.0000 </r>
       <r>    9.4102    0.0000 </r>
       <r>   10.1192    0.0000 </r>
       <r>   10.3333    0.0000 </r>
       <r>   11.0995    0.0000 </r>
       <r>   11.6867    0.0000 </r>
       <r>   12.5648    0.0000 </r>
       <r>   12.6621    0.0000 </r>
       <r>   13.4840    0.0000 </r>
       <r>   14.6948    0.0000 </r>
       <r>   16.2827    0.0000 </r>
       <r>   16.4859    0.0000 </r>
       <r>   17.2477    0.0000 </r>
       <r>   17.6074    0.0000 </r>
       <r>   18.5576    0.0000 </r>
       <r>   19.3419    0.0000 </r>
       <r>   19.9834    0.0000 </r>
       <r>   21.5101    0.0000 </r>
       <r>   21.6626    0.0000 </r>
       <r>   23.5815    0.0000 </r>
       <r>   23.8364    0.0000 </r>
       <r>   24.9116    0.0000 </r>
       <r>   25.5337    0.0000 </r>
       <r>   26.1393    0.0000 </r>
       <r>   26.4617    0.0000 </r>
       <r>   27.0006    0.0000 </r>
       <r>   27.0207    0.0000 </r>
       <r>   27.2207    0.0000 </r>
       <r>   28.1449    0.0000 </r>
       <r>   28.6613    0.0000 </r>
       <r>   29.1879    0.0000 </r>
       <r>   29.5739    0.0000 </r>
       <r>   29.8464    0.0000 </r>
       <r>   30.4052    0.0000 </r>
       <r>   30.6370    0.0000 </r>
       <r>   31.7051    0.0000 </r>
       <r>   32.5537    0.0000 </r>
       <r>   32.9156    0.0000 </r>
       <r>   33.7849    0.0000 </r>
       <r>   34.1943    0.0000 </r>
       <r>   34.7839    0.0000 </r>
      </set>
      <set comment="kpoint 18">
       <r>  -21.6920    1.0000 </r>
       <r>   -9.7830    1.0000 </r>
       <r>   -5.5464    1.0000 </r>
       <r>   -5.4253    1.0000 </r>
       <r>    1.0967    0.0000 </r>
       <r>    2.0026    0.0000 </r>
       <r>    2.5387    0.0000 </r>
       <r>    4.4290    0.0000 </r>
       <r>    5.1855    0.0000 </r>
       <r>    6.1099    0.0000 </r>
       <r>    6.3375    0.0000 </r>
       <r>    8.3238    0.0000 </r>
       <r>    8.9339    0.0000 </r>
       <r>    9.4411    0.0000 </r>
       <r>   10.3356    0.0000 </r>
       <r>   13.6419    0.0000 </r>
       <r>   15.1601    0.0000 </r>
       <r>   20.1721    0.0000 </r>
       <r>   20.4381    0.0000 </r>
       <r>   22.3073    0.0000 </r>
       <r>   25.0761    0.0000 </r>
       <r>   25.4449    0.0000 </r>
       <r>   26.8758    0.0000 </r>
       <r>   29.4420    0.0000 </r>
       <r>   30.1207    0.0000 </r>
       <r>   30.5764    0.0000 </r>
       <r>   30.7947    0.0000 </r>
       <r>   30.9121    0.0000 </r>
       <r>   32.0859    0.0000 </r>
       <r>   32.3807    0.0000 </r>
       <r>   32.4050    0.0000 </r>
       <r>   32.5048    0.0000 </r>
       <r>   32.7476    0.0000 </r>
       <r>   33.6140    0.0000 </r>
       <r>   33.6950    0.0000 </r>
       <r>   34.2984    0.0000 </r>
       <r>   34.7660    0.0000 </r>
       <r>   34.9985    0.0000 </r>
       <r>   35.0130    0.0000 </r>
       <r>   35.2972    0.0000 </r>
       <r>   35.3678    0.0000 </r>
       <r>   35.3985    0.0000 </r>
       <r>   35.4122    0.0000 </r>
       <r>   36.4062    0.0000 </r>
       <r>   36.7607    0.0000 </r>
       <r>   37.1204    0.0000 </r>
       <r>   37.5669    0.0000 </r>
       <r>   37.7943    0.0000 </r>
      </set>
      <set comment="kpoint 19">
       <r>  -21.6053    1.0000 </r>
       <r>   -9.6797    1.0000 </r>
       <r>   -5.8783    1.0000 </r>
       <r>   -5.6069    1.0000 </r>
       <r>    1.2145    0.0000 </r>
       <r>    2.1213    0.0000 </r>
       <r>    2.6586    0.0000 </r>
       <r>    4.5470    0.0000 </r>
       <r>    5.3003    0.0000 </r>
       <r>    6.1611    0.0000 </r>
       <r>    6.6799    0.0000 </r>
       <r>    8.4380    0.0000 </r>
       <r>    8.6393    0.0000 </r>
       <r>    9.5598    0.0000 </r>
       <r>   10.5026    0.0000 </r>
       <r>   13.7466    0.0000 </r>
       <r>   15.2766    0.0000 </r>
       <r>   20.2183    0.0000 </r>
       <r>   20.7039    0.0000 </r>
       <r>   22.4224    0.0000 </r>
       <r>   24.1722    0.0000 </r>
       <r>   24.9413    0.0000 </r>
       <r>   26.9364    0.0000 </r>
       <r>   28.9672    0.0000 </r>
       <r>   29.4508    0.0000 </r>
       <r>   29.9404    0.0000 </r>
       <r>   30.5113    0.0000 </r>
       <r>   30.5668    0.0000 </r>
       <r>   30.9112    0.0000 </r>
       <r>   30.9137    0.0000 </r>
       <r>   31.5272    0.0000 </r>
       <r>   31.5570    0.0000 </r>
       <r>   32.7746    0.0000 </r>
       <r>   32.8921    0.0000 </r>
       <r>   33.0774    0.0000 </r>
       <r>   33.8847    0.0000 </r>
       <r>   34.0599    0.0000 </r>
       <r>   34.0665    0.0000 </r>
       <r>   34.4854    0.0000 </r>
       <r>   34.5729    0.0000 </r>
       <r>   34.8144    0.0000 </r>
       <r>   36.1983    0.0000 </r>
       <r>   36.4728    0.0000 </r>
       <r>   36.5989    0.0000 </r>
       <r>   36.8918    0.0000 </r>
       <r>   36.9937    0.0000 </r>
       <r>   37.1239    0.0000 </r>
       <r>   37.8050    0.0000 </r>
      </set>
      <set comment="kpoint 20">
       <r>  -21.4754    1.0000 </r>
       <r>   -9.5251    1.0000 </r>
       <r>   -6.3476    1.0000 </r>
       <r>   -5.8558    1.0000 </r>
       <r>    1.3912    0.0000 </r>
       <r>    2.2992    0.0000 </r>
       <r>    2.8386    0.0000 </r>
       <r>    4.7237    0.0000 </r>
       <r>    5.4715    0.0000 </r>
       <r>    6.2031    0.0000 </r>
       <r>    7.1726    0.0000 </r>
       <r>    8.2147    0.0000 </r>
       <r>    8.6099    0.0000 </r>
       <r>    9.7371    0.0000 </r>
       <r>   10.7669    0.0000 </r>
       <r>   13.9014    0.0000 </r>
       <r>   15.4505    0.0000 </r>
       <r>   20.2432    0.0000 </r>
       <r>   21.0626    0.0000 </r>
       <r>   22.5987    0.0000 </r>
       <r>   23.2352    0.0000 </r>
       <r>   24.3073    0.0000 </r>
       <r>   27.1142    0.0000 </r>
       <r>   27.2879    0.0000 </r>
       <r>   28.6653    0.0000 </r>
       <r>   28.7530    0.0000 </r>
       <r>   29.1738    0.0000 </r>
       <r>   29.5920    0.0000 </r>
       <r>   30.7145    0.0000 </r>
       <r>   30.8141    0.0000 </r>
       <r>   31.0711    0.0000 </r>
       <r>   31.2424    0.0000 </r>
       <r>   31.2869    0.0000 </r>
       <r>   31.8926    0.0000 </r>
       <r>   32.0960    0.0000 </r>
       <r>   33.2168    0.0000 </r>
       <r>   33.2957    0.0000 </r>
       <r>   33.7584    0.0000 </r>
       <r>   33.7903    0.0000 </r>
       <r>   35.1379    0.0000 </r>
       <r>   35.2163    0.0000 </r>
       <r>   35.3604    0.0000 </r>
       <r>   36.0643    0.0000 </r>
       <r>   36.1601    0.0000 </r>
       <r>   36.2007    0.0000 </r>
       <r>   37.1907    0.0000 </r>
       <r>   37.4582    0.0000 </r>
       <r>   37.5720    0.0000 </r>
      </set>
      <set comment="kpoint 21">
       <r>  -21.3025    1.0000 </r>
       <r>   -9.3197    1.0000 </r>
       <r>   -6.9279    1.0000 </r>
       <r>   -6.1503    1.0000 </r>
       <r>    1.6268    0.0000 </r>
       <r>    2.5363    0.0000 </r>
       <r>    3.0785    0.0000 </r>
       <r>    4.9588    0.0000 </r>
       <r>    5.6949    0.0000 </r>
       <r>    6.2184    0.0000 </r>
       <r>    7.6784    0.0000 </r>
       <r>    7.7990    0.0000 </r>
       <r>    8.8376    0.0000 </r>
       <r>    9.9721    0.0000 </r>
       <r>   11.1301    0.0000 </r>
       <r>   14.1035    0.0000 </r>
       <r>   15.6809    0.0000 </r>
       <r>   20.1540    0.0000 </r>
       <r>   21.4559    0.0000 </r>
       <r>   22.4568    0.0000 </r>
       <r>   22.8411    0.0000 </r>
       <r>   23.6417    0.0000 </r>
       <r>   25.6810    0.0000 </r>
       <r>   26.8340    0.0000 </r>
       <r>   27.0451    0.0000 </r>
       <r>   27.5338    0.0000 </r>
       <r>   28.4243    0.0000 </r>
       <r>   29.3124    0.0000 </r>
       <r>   29.6276    0.0000 </r>
       <r>   29.6337    0.0000 </r>
       <r>   29.9723    0.0000 </r>
       <r>   30.5378    0.0000 </r>
       <r>   31.2462    0.0000 </r>
       <r>   31.3958    0.0000 </r>
       <r>   32.3904    0.0000 </r>
       <r>   32.5592    0.0000 </r>
       <r>   32.6021    0.0000 </r>
       <r>   33.0425    0.0000 </r>
       <r>   33.4315    0.0000 </r>
       <r>   33.7391    0.0000 </r>
       <r>   33.7708    0.0000 </r>
       <r>   35.4132    0.0000 </r>
       <r>   35.4796    0.0000 </r>
       <r>   36.2037    0.0000 </r>
       <r>   36.7239    0.0000 </r>
       <r>   37.0786    0.0000 </r>
       <r>   37.2210    0.0000 </r>
       <r>   38.3682    0.0000 </r>
      </set>
      <set comment="kpoint 22">
       <r>  -21.0868    1.0000 </r>
       <r>   -9.0646    1.0000 </r>
       <r>   -7.5926    1.0000 </r>
       <r>   -6.4705    1.0000 </r>
       <r>    1.9212    0.0000 </r>
       <r>    2.8320    0.0000 </r>
       <r>    3.3784    0.0000 </r>
       <r>    5.2514    0.0000 </r>
       <r>    5.9399    0.0000 </r>
       <r>    6.2293    0.0000 </r>
       <r>    7.0481    0.0000 </r>
       <r>    8.5366    0.0000 </r>
       <r>    9.1210    0.0000 </r>
       <r>   10.2642    0.0000 </r>
       <r>   11.5806    0.0000 </r>
       <r>   14.3475    0.0000 </r>
       <r>   15.9670    0.0000 </r>
       <r>   19.8038    0.0000 </r>
       <r>   21.7550    0.0000 </r>
       <r>   22.0171    0.0000 </r>
       <r>   22.9793    0.0000 </r>
       <r>   23.1370    0.0000 </r>
       <r>   24.2387    0.0000 </r>
       <r>   25.3752    0.0000 </r>
       <r>   25.4111    0.0000 </r>
       <r>   27.2341    0.0000 </r>
       <r>   27.6874    0.0000 </r>
       <r>   28.1114    0.0000 </r>
       <r>   28.3596    0.0000 </r>
       <r>   29.0635    0.0000 </r>
       <r>   29.2762    0.0000 </r>
       <r>   30.2983    0.0000 </r>
       <r>   30.6607    0.0000 </r>
       <r>   31.5616    0.0000 </r>
       <r>   31.8455    0.0000 </r>
       <r>   31.9004    0.0000 </r>
       <r>   31.9893    0.0000 </r>
       <r>   32.1488    0.0000 </r>
       <r>   32.4775    0.0000 </r>
       <r>   32.5378    0.0000 </r>
       <r>   34.0250    0.0000 </r>
       <r>   34.7327    0.0000 </r>
       <r>   35.2266    0.0000 </r>
       <r>   35.7588    0.0000 </r>
       <r>   36.1149    0.0000 </r>
       <r>   37.3057    0.0000 </r>
       <r>   37.4586    0.0000 </r>
       <r>   38.0095    0.0000 </r>
      </set>
      <set comment="kpoint 23">
       <r>  -20.8287    1.0000 </r>
       <r>   -8.7607    1.0000 </r>
       <r>   -8.3175    1.0000 </r>
       <r>   -6.7996    1.0000 </r>
       <r>    2.2742    0.0000 </r>
       <r>    3.1857    0.0000 </r>
       <r>    3.7382    0.0000 </r>
       <r>    5.5957    0.0000 </r>
       <r>    6.0218    0.0000 </r>
       <r>    6.3503    0.0000 </r>
       <r>    6.4250    0.0000 </r>
       <r>    9.3656    0.0000 </r>
       <r>    9.4594    0.0000 </r>
       <r>   10.6135    0.0000 </r>
       <r>   12.0961    0.0000 </r>
       <r>   14.6244    0.0000 </r>
       <r>   16.3076    0.0000 </r>
       <r>   19.1976    0.0000 </r>
       <r>   21.5690    0.0000 </r>
       <r>   21.8898    0.0000 </r>
       <r>   22.3199    0.0000 </r>
       <r>   23.0438    0.0000 </r>
       <r>   23.5431    0.0000 </r>
       <r>   23.9506    0.0000 </r>
       <r>   24.0508    0.0000 </r>
       <r>   26.1395    0.0000 </r>
       <r>   26.4637    0.0000 </r>
       <r>   27.2332    0.0000 </r>
       <r>   27.8299    0.0000 </r>
       <r>   28.6432    0.0000 </r>
       <r>   28.7780    0.0000 </r>
       <r>   30.0133    0.0000 </r>
       <r>   30.1045    0.0000 </r>
       <r>   30.6406    0.0000 </r>
       <r>   30.8091    0.0000 </r>
       <r>   31.2883    0.0000 </r>
       <r>   31.3524    0.0000 </r>
       <r>   31.7309    0.0000 </r>
       <r>   31.9811    0.0000 </r>
       <r>   32.2484    0.0000 </r>
       <r>   34.0055    0.0000 </r>
       <r>   34.1062    0.0000 </r>
       <r>   35.2828    0.0000 </r>
       <r>   35.4829    0.0000 </r>
       <r>   35.6353    0.0000 </r>
       <r>   36.2040    0.0000 </r>
       <r>   36.2395    0.0000 </r>
       <r>   37.9983    0.0000 </r>
      </set>
      <set comment="kpoint 24">
       <r>  -20.5287    1.0000 </r>
       <r>   -9.0826    1.0000 </r>
       <r>   -8.4097    1.0000 </r>
       <r>   -7.1240    1.0000 </r>
       <r>    2.6856    0.0000 </r>
       <r>    3.5949    0.0000 </r>
       <r>    4.1576    0.0000 </r>
       <r>    5.5482    0.0000 </r>
       <r>    5.9487    0.0000 </r>
       <r>    6.0463    0.0000 </r>
       <r>    6.8086    0.0000 </r>
       <r>    9.8509    0.0000 </r>
       <r>   10.2617    0.0000 </r>
       <r>   11.0201    0.0000 </r>
       <r>   12.6466    0.0000 </r>
       <r>   14.9155    0.0000 </r>
       <r>   16.7013    0.0000 </r>
       <r>   18.5038    0.0000 </r>
       <r>   20.5536    0.0000 </r>
       <r>   21.4880    0.0000 </r>
       <r>   21.8674    0.0000 </r>
       <r>   22.0252    0.0000 </r>
       <r>   22.8424    0.0000 </r>
       <r>   23.1850    0.0000 </r>
       <r>   24.0762    0.0000 </r>
       <r>   24.8789    0.0000 </r>
       <r>   25.2121    0.0000 </r>
       <r>   26.6803    0.0000 </r>
       <r>   27.3099    0.0000 </r>
       <r>   28.0688    0.0000 </r>
       <r>   28.2684    0.0000 </r>
       <r>   29.0910    0.0000 </r>
       <r>   29.5878    0.0000 </r>
       <r>   29.7459    0.0000 </r>
       <r>   30.2397    0.0000 </r>
       <r>   30.7126    0.0000 </r>
       <r>   30.8040    0.0000 </r>
       <r>   31.2039    0.0000 </r>
       <r>   32.0726    0.0000 </r>
       <r>   32.3273    0.0000 </r>
       <r>   33.5341    0.0000 </r>
       <r>   33.7186    0.0000 </r>
       <r>   34.5717    0.0000 </r>
       <r>   34.6272    0.0000 </r>
       <r>   35.0908    0.0000 </r>
       <r>   35.1003    0.0000 </r>
       <r>   36.7496    0.0000 </r>
       <r>   37.7121    0.0000 </r>
      </set>
      <set comment="kpoint 25">
       <r>  -20.1873    1.0000 </r>
       <r>   -9.8715    1.0000 </r>
       <r>   -8.0138    1.0000 </r>
       <r>   -7.4335    1.0000 </r>
       <r>    3.1551    0.0000 </r>
       <r>    4.0412    0.0000 </r>
       <r>    4.6362    0.0000 </r>
       <r>    4.7829    0.0000 </r>
       <r>    5.8422    0.0000 </r>
       <r>    6.4980    0.0000 </r>
       <r>    7.2705    0.0000 </r>
       <r>   10.2935    0.0000 </r>
       <r>   11.1946    0.0000 </r>
       <r>   11.4873    0.0000 </r>
       <r>   13.1942    0.0000 </r>
       <r>   15.1794    0.0000 </r>
       <r>   17.1451    0.0000 </r>
       <r>   17.8432    0.0000 </r>
       <r>   19.2985    0.0000 </r>
       <r>   20.4837    0.0000 </r>
       <r>   20.6252    0.0000 </r>
       <r>   21.4270    0.0000 </r>
       <r>   22.3040    0.0000 </r>
       <r>   22.8049    0.0000 </r>
       <r>   23.9016    0.0000 </r>
       <r>   23.9357    0.0000 </r>
       <r>   24.8907    0.0000 </r>
       <r>   26.2113    0.0000 </r>
       <r>   26.6208    0.0000 </r>
       <r>   27.4992    0.0000 </r>
       <r>   27.5350    0.0000 </r>
       <r>   27.8579    0.0000 </r>
       <r>   29.0350    0.0000 </r>
       <r>   29.2075    0.0000 </r>
       <r>   30.1993    0.0000 </r>
       <r>   30.2440    0.0000 </r>
       <r>   30.3582    0.0000 </r>
       <r>   30.6938    0.0000 </r>
       <r>   31.8354    0.0000 </r>
       <r>   32.7369    0.0000 </r>
       <r>   33.0104    0.0000 </r>
       <r>   33.3040    0.0000 </r>
       <r>   33.3816    0.0000 </r>
       <r>   33.6059    0.0000 </r>
       <r>   34.5285    0.0000 </r>
       <r>   35.0331    0.0000 </r>
       <r>   36.9011    0.0000 </r>
       <r>   37.1787    0.0000 </r>
      </set>
      <set comment="kpoint 26">
       <r>  -19.8053    1.0000 </r>
       <r>  -10.6708    1.0000 </r>
       <r>   -7.7200    1.0000 </r>
       <r>   -7.5761    1.0000 </r>
       <r>    3.6820    0.0000 </r>
       <r>    3.8686    0.0000 </r>
       <r>    4.6555    0.0000 </r>
       <r>    5.1709    0.0000 </r>
       <r>    5.7307    0.0000 </r>
       <r>    7.0211    0.0000 </r>
       <r>    7.7953    0.0000 </r>
       <r>   10.7831    0.0000 </r>
       <r>   11.9780    0.0000 </r>
       <r>   12.1586    0.0000 </r>
       <r>   13.6861    0.0000 </r>
       <r>   15.3173    0.0000 </r>
       <r>   17.2973    0.0000 </r>
       <r>   17.6227    0.0000 </r>
       <r>   18.1009    0.0000 </r>
       <r>   19.2607    0.0000 </r>
       <r>   19.3756    0.0000 </r>
       <r>   20.8154    0.0000 </r>
       <r>   21.6851    0.0000 </r>
       <r>   21.7707    0.0000 </r>
       <r>   23.5369    0.0000 </r>
       <r>   23.8509    0.0000 </r>
       <r>   25.1160    0.0000 </r>
       <r>   25.7273    0.0000 </r>
[...]
       <r>   30.8047    0.0000 </r>
       <r>   31.4031    0.0000 </r>
       <r>   33.7370    0.0000 </r>
       <r>   33.9680    0.0000 </r>
       <r>   34.4362    0.0000 </r>
       <r>   35.1843    0.0000 </r>
       <r>   35.2796    0.0000 </r>
       <r>   38.8447    0.0000 </r>
       <r>   39.6812    0.0000 </r>
       <r>   40.5284    0.0000 </r>
      </set>
      <set comment="kpoint 107">
       <r>  -15.2368    1.0000 </r>
       <r>  -14.5414    1.0000 </r>
       <r>  -12.6477    1.0000 </r>
       <r>   -2.7428    1.0000 </r>
       <r>   -1.7720    0.0000 </r>
       <r>    8.4104    0.0000 </r>
       <r>   10.2473    0.0000 </r>
       <r>   10.6767    0.0000 </r>
       <r>   11.1347    0.0000 </r>
       <r>   11.9752    0.0000 </r>
       <r>   12.2712    0.0000 </r>
       <r>   12.9825    0.0000 </r>
       <r>   13.0588    0.0000 </r>
       <r>   13.6181    0.0000 </r>
       <r>   13.8184    0.0000 </r>
       <r>   13.8966    0.0000 </r>
       <r>   14.4057    0.0000 </r>
       <r>   14.5484    0.0000 </r>
       <r>   14.8220    0.0000 </r>
       <r>   15.4987    0.0000 </r>
       <r>   16.1286    0.0000 </r>
       <r>   16.5827    0.0000 </r>
       <r>   16.8925    0.0000 </r>
       <r>   17.6956    0.0000 </r>
       <r>   18.2801    0.0000 </r>
       <r>   19.3095    0.0000 </r>
       <r>   19.8356    0.0000 </r>
       <r>   20.7300    0.0000 </r>
       <r>   20.8182    0.0000 </r>
       <r>   21.6974    0.0000 </r>
       <r>   22.4390    0.0000 </r>
       <r>   23.5076    0.0000 </r>
       <r>   24.4863    0.0000 </r>
       <r>   25.2639    0.0000 </r>
       <r>   26.2276    0.0000 </r>
       <r>   26.5299    0.0000 </r>
       <r>   27.2256    0.0000 </r>
       <r>   29.8959    0.0000 </r>
       <r>   30.5424    0.0000 </r>
       <r>   32.2343    0.0000 </r>
       <r>   33.1895    0.0000 </r>
       <r>   33.5020    0.0000 </r>
       <r>   34.2031    0.0000 </r>
       <r>   35.1963    0.0000 </r>
       <r>   35.8807    0.0000 </r>
       <r>   39.0541    0.0000 </r>
       <r>   40.4048    0.0000 </r>
       <r>   40.4687    0.0000 </r>
      </set>
      <set comment="kpoint 108">
       <r>  -14.8398    1.0000 </r>
       <r>  -14.8398    1.0000 </r>
       <r>  -12.7896    1.0000 </r>
       <r>   -2.2530    0.5001 </r>
       <r>   -2.2530    0.4999 </r>
       <r>    8.3638    0.0000 </r>
       <r>   10.6294    0.0000 </r>
       <r>   10.6294    0.0000 </r>
       <r>   11.2356    0.0000 </r>
       <r>   12.6777    0.0000 </r>
       <r>   12.6777    0.0000 </r>
       <r>   12.9632    0.0000 </r>
       <r>   12.9632    0.0000 </r>
       <r>   13.2035    0.0000 </r>
       <r>   13.5524    0.0000 </r>
       <r>   13.9173    0.0000 </r>
       <r>   13.9173    0.0000 </r>
       <r>   14.8828    0.0000 </r>
       <r>   15.1049    0.0000 </r>
       <r>   15.1049    0.0000 </r>
       <r>   16.2229    0.0000 </r>
       <r>   16.3832    0.0000 </r>
       <r>   16.3832    0.0000 </r>
       <r>   17.5090    0.0000 </r>
       <r>   18.8747    0.0000 </r>
       <r>   18.8747    0.0000 </r>
       <r>   20.4081    0.0000 </r>
       <r>   20.4081    0.0000 </r>
       <r>   20.5553    0.0000 </r>
       <r>   21.2573    0.0000 </r>
       <r>   22.5010    0.0000 </r>
       <r>   24.0600    0.0000 </r>
       <r>   24.0600    0.0000 </r>
       <r>   25.9755    0.0000 </r>
       <r>   25.9755    0.0000 </r>
       <r>   26.3296    0.0000 </r>
       <r>   26.6428    0.0000 </r>
       <r>   30.3075    0.0000 </r>
       <r>   30.3075    0.0000 </r>
       <r>   32.9739    0.0000 </r>
       <r>   32.9739    0.0000 </r>
       <r>   33.3651    0.0000 </r>
       <r>   33.5935    0.0000 </r>
       <r>   35.7242    0.0000 </r>
       <r>   35.7242    0.0000 </r>
       <r>   38.7598    0.0000 </r>
       <r>   40.6389    0.0000 </r>
       <r>   40.6390    0.0000 </r>
      </set>
     </set>
    </set>
   </array>
  </eigenvalues>
  <separator name="orbital magnetization" >
   <v name="MAGDIPOLOUT">      0.00000000      0.00000000      0.00000000</v>
  </separator>
  <dos>
   <i name="efermi">     -2.25300381 </i>
   <total>
    <array>
     <dimension dim="1">gridpoints</dimension>
     <dimension dim="2">spin</dimension>
     <field>energy</field>
     <field>total</field>
     <field>integrated</field>
     <set>
      <set comment="spin 1">
       <r>   -24.8769     0.0000     0.0000 </r>
       <r>   -24.6481     0.0000     0.0000 </r>
       <r>   -24.4193     0.0000     0.0000 </r>
       <r>   -24.1906     0.0000     0.0000 </r>
       <r>   -23.9618     0.0000     0.0000 </r>
       <r>   -23.7330     0.0000     0.0000 </r>
       <r>   -23.5042     0.0000     0.0000 </r>
       <r>   -23.2754     0.0000     0.0000 </r>
       <r>   -23.0466     0.0000     0.0000 </r>
       <r>   -22.8178     0.0000     0.0000 </r>
       <r>   -22.5891     0.0000     0.0000 </r>
       <r>   -22.3603     0.0000     0.0000 </r>
       <r>   -22.1315     0.0000     0.0000 </r>
       <r>   -21.9027     0.0007     0.0002 </r>
       <r>   -21.6739     0.1166     0.0268 </r>
       <r>   -21.4451     0.3022     0.0960 </r>
       <r>   -21.2163     0.3063     0.1660 </r>
       <r>   -20.9876     0.3066     0.2362 </r>
       <r>   -20.7588     0.3067     0.3064 </r>
       <r>   -20.5300     0.3128     0.3779 </r>
       <r>   -20.3012     0.3285     0.4531 </r>
       <r>   -20.0724     0.3129     0.5247 </r>
       <r>   -19.8436     0.2833     0.5895 </r>
       <r>   -19.6149     0.3444     0.6683 </r>
       <r>   -19.3861     0.3148     0.7403 </r>
       <r>   -19.1573     0.2940     0.8076 </r>
       <r>   -18.9285     0.3612     0.8902 </r>
       <r>   -18.6997     0.2648     0.9508 </r>
       <r>   -18.4709     0.3797     1.0376 </r>
       <r>   -18.2421     0.2646     1.0982 </r>
       <r>   -18.0134     0.3955     1.1887 </r>
       <r>   -17.7846     0.2689     1.2502 </r>
       <r>   -17.5558     0.4077     1.3435 </r>
       <r>   -17.3270     0.2698     1.4052 </r>
       <r>   -17.0982     0.4040     1.4976 </r>
       <r>   -16.8694     0.3154     1.5698 </r>
       <r>   -16.6406     0.4284     1.6678 </r>
       <r>   -16.4119     0.4547     1.7718 </r>
       <r>   -16.1831     0.2758     1.8349 </r>
       <r>   -15.9543     0.2725     1.8973 </r>
       <r>   -15.7255     0.1387     1.9290 </r>
       <r>   -15.4967     0.1705     1.9680 </r>
       <r>   -15.2679     0.2745     2.0308 </r>
       <r>   -15.0391     0.3483     2.1105 </r>
       <r>   -14.8104     0.3367     2.1875 </r>
       <r>   -14.5816     0.4026     2.2796 </r>
       <r>   -14.3528     0.4582     2.3845 </r>
       <r>   -14.1240     0.3709     2.4693 </r>
       <r>   -13.8952     0.3288     2.5445 </r>
       <r>   -13.6664     0.3453     2.6235 </r>
       <r>   -13.4376     0.2808     2.6878 </r>
       <r>   -13.2089     0.3101     2.7587 </r>
       <r>   -12.9801     0.2998     2.8273 </r>
       <r>   -12.7513     0.2435     2.8830 </r>
       <r>   -12.5225     0.3945     2.9733 </r>
       <r>   -12.2937     0.3142     3.0451 </r>
       <r>   -12.0649     0.4395     3.1457 </r>
       <r>   -11.8361     0.2726     3.2081 </r>
       <r>   -11.6074     0.4526     3.3116 </r>
       <r>   -11.3786     0.3376     3.3888 </r>
       <r>   -11.1498     0.3918     3.4785 </r>
       <r>   -10.9210     0.4375     3.5786 </r>
       <r>   -10.6922     0.3517     3.6590 </r>
       <r>   -10.4634     0.4762     3.7680 </r>
       <r>   -10.2346     0.3607     3.8505 </r>
       <r>   -10.0059     0.4895     3.9625 </r>
       <r>    -9.7771     0.5390     4.0858 </r>
       <r>    -9.5483     0.7558     4.2587 </r>
       <r>    -9.3195     0.7489     4.4301 </r>
       <r>    -9.0907     0.8176     4.6171 </r>
       <r>    -8.8619     0.9117     4.8257 </r>
       <r>    -8.6331     1.0584     5.0679 </r>
       <r>    -8.4044     1.0085     5.2986 </r>
       <r>    -8.1756     0.8799     5.4999 </r>
       <r>    -7.9468     0.7456     5.6705 </r>
       <r>    -7.7180     0.7304     5.8376 </r>
       <r>    -7.4892     0.6976     5.9972 </r>
       <r>    -7.2604     0.6004     6.1346 </r>
       <r>    -7.0316     0.7074     6.2964 </r>
       <r>    -6.8029     0.5603     6.4246 </r>
       <r>    -6.5741     0.6201     6.5664 </r>
       <r>    -6.3453     0.5503     6.6923 </r>
       <r>    -6.1165     0.6287     6.8362 </r>
       <r>    -5.8877     0.4971     6.9499 </r>
       <r>    -5.6589     0.5990     7.0869 </r>
       <r>    -5.4301     0.5450     7.2116 </r>
       <r>    -5.2014     0.4819     7.3219 </r>
       <r>    -4.9726     0.4098     7.4156 </r>
       <r>    -4.7438     0.3538     7.4966 </r>
       <r>    -4.5150     0.6797     7.6521 </r>
       <r>    -4.2862     0.2669     7.7131 </r>
       <r>    -4.0574     0.4091     7.8067 </r>
       <r>    -3.8286     0.1497     7.8410 </r>
       <r>    -3.5999     0.2678     7.9023 </r>
       <r>    -3.3711     0.0933     7.9236 </r>
       <r>    -3.1423     0.1518     7.9583 </r>
       <r>    -2.9135     0.0676     7.9738 </r>
       <r>    -2.6847     0.0787     7.9918 </r>
       <r>    -2.4559     0.0199     7.9963 </r>
       <r>    -2.2271     0.0206     8.0010 </r>
       <r>    -1.9984     0.0115     8.0037 </r>
       <r>    -1.7696     0.0494     8.0150 </r>
       <r>    -1.5408     0.0653     8.0299 </r>
       <r>    -1.3120     0.1086     8.0548 </r>
       <r>    -1.0832     0.1658     8.0927 </r>
       <r>    -0.8544     0.2012     8.1388 </r>
       <r>    -0.6256     0.4047     8.2313 </r>
       <r>    -0.3969     0.5946     8.3674 </r>
       <r>    -0.1681     0.4679     8.4744 </r>
       <r>     0.0607     0.3028     8.5437 </r>
       <r>     0.2895     0.3570     8.6254 </r>
       <r>     0.5183     0.2465     8.6818 </r>
       <r>     0.7471     0.2926     8.7487 </r>
       <r>     0.9759     0.2817     8.8132 </r>
       <r>     1.2046     0.3846     8.9011 </r>
       <r>     1.4334     0.5060     9.0169 </r>
       <r>     1.6622     0.4206     9.1131 </r>
       <r>     1.8910     0.4613     9.2187 </r>
       <r>     2.1198     0.6208     9.3607 </r>
       <r>     2.3486     0.6386     9.5068 </r>
       <r>     2.5774     0.7553     9.6796 </r>
       <r>     2.8061     0.9019     9.8859 </r>
       <r>     3.0349     0.8367    10.0774 </r>
       <r>     3.2637     0.7993    10.2602 </r>
       <r>     3.4925     0.9551    10.4788 </r>
       <r>     3.7213     0.7557    10.6517 </r>
       <r>     3.9501     0.8881    10.8548 </r>
       <r>     4.1789     0.8557    11.0506 </r>
       <r>     4.4076     0.8194    11.2381 </r>
       <r>     4.6364     0.9108    11.4465 </r>
       <r>     4.8652     1.2602    11.7348 </r>
       <r>     5.0940     0.9614    11.9547 </r>
       <r>     5.3228     1.8122    12.3693 </r>
       <r>     5.5516     1.7814    12.7769 </r>
       <r>     5.7804     1.8359    13.1969 </r>
       <r>     6.0091     1.9274    13.6379 </r>
       <r>     6.2379     2.5246    14.2155 </r>
       <r>     6.4667     1.9854    14.6697 </r>
       <r>     6.6955     1.9684    15.1201 </r>
       <r>     6.9243     1.8398    15.5410 </r>
       <r>     7.1531     1.6628    15.9214 </r>
       <r>     7.3819     1.5810    16.2831 </r>
       <r>     7.6106     1.9651    16.7327 </r>
       <r>     7.8394     1.4248    17.0587 </r>
       <r>     8.0682     1.5521    17.4138 </r>
       <r>     8.2970     1.9893    17.8689 </r>
       <r>     8.5258     2.1516    18.3611 </r>
       <r>     8.7546     1.8526    18.7850 </r>
       <r>     8.9833     2.1999    19.2883 </r>
       <r>     9.2121     1.9741    19.7399 </r>
       <r>     9.4409     1.6077    20.1078 </r>
       <r>     9.6697     2.0764    20.5828 </r>
       <r>     9.8985     2.0184    21.0446 </r>
       <r>    10.1273     1.9473    21.4901 </r>
       <r>    10.3561     2.2073    21.9951 </r>
       <r>    10.5848     2.4565    22.5571 </r>
       <r>    10.8136     2.5825    23.1480 </r>
       <r>    11.0424     1.8218    23.5648 </r>
       <r>    11.2712     2.2435    24.0780 </r>
       <r>    11.5000     2.0758    24.5529 </r>
       <r>    11.7288     2.7001    25.1707 </r>
       <r>    11.9576     2.4079    25.7216 </r>
       <r>    12.1863     2.1159    26.2057 </r>
       <r>    12.4151     1.7210    26.5994 </r>
       <r>    12.6439     1.5072    26.9443 </r>
       <r>    12.8727     1.4479    27.2755 </r>
       <r>    13.1015     1.6835    27.6607 </r>
       <r>    13.3303     1.5424    28.0136 </r>
       <r>    13.5591     1.8449    28.4357 </r>
       <r>    13.7878     2.0978    28.9156 </r>
       <r>    14.0166     2.4799    29.4830 </r>
       <r>    14.2454     2.1759    29.9808 </r>
       <r>    14.4742     2.7419    30.6081 </r>
       <r>    14.7030     2.6645    31.2177 </r>
       <r>    14.9318     2.8471    31.8691 </r>
       <r>    15.1606     2.3738    32.4122 </r>
       <r>    15.3893     2.0103    32.8721 </r>
       <r>    15.6181     2.1775    33.3703 </r>
       <r>    15.8469     1.9687    33.8207 </r>
       <r>    16.0757     1.7645    34.2244 </r>
       <r>    16.3045     2.4964    34.7955 </r>
       <r>    16.5333     2.2949    35.3206 </r>
       <r>    16.7621     2.4227    35.8748 </r>
       <r>    16.9908     2.2935    36.3995 </r>
       <r>    17.2196     2.7492    37.0285 </r>
       <r>    17.4484     2.2379    37.5405 </r>
       <r>    17.6772     2.2364    38.0522 </r>
       <r>    17.9060     2.3797    38.5966 </r>
       <r>    18.1348     2.2238    39.1054 </r>
       <r>    18.3636     2.2897    39.6292 </r>
       <r>    18.5923     2.0615    40.1009 </r>
       <r>    18.8211     2.4349    40.6580 </r>
       <r>    19.0499     2.5575    41.2431 </r>
       <r>    19.2787     2.7807    41.8793 </r>
       <r>    19.5075     2.4735    42.4451 </r>
       <r>    19.7363     2.4562    43.0071 </r>
       <r>    19.9651     3.1381    43.7250 </r>
       <r>    20.1938     3.1632    44.4487 </r>
       <r>    20.4226     3.1640    45.1726 </r>
       <r>    20.6514     2.1995    45.6758 </r>
       <r>    20.8802     2.3861    46.2217 </r>
       <r>    21.1090     2.0639    46.6939 </r>
       <r>    21.3378     2.6170    47.2927 </r>
       <r>    21.5666     3.3093    48.0498 </r>
       <r>    21.7953     3.3193    48.8092 </r>
       <r>    22.0241     3.3328    49.5717 </r>
       <r>    22.2529     2.7313    50.1966 </r>
       <r>    22.4817     2.4660    50.7608 </r>
       <r>    22.7105     2.6615    51.3697 </r>
       <r>    22.9393     2.8138    52.0134 </r>
       <r>    23.1681     2.6863    52.6280 </r>
       <r>    23.3968     2.7046    53.2468 </r>
       <r>    23.6256     2.6838    53.8608 </r>
       <r>    23.8544     3.2142    54.5962 </r>
       <r>    24.0832     3.4925    55.3952 </r>
       <r>    24.3120     3.2203    56.1320 </r>
       <r>    24.5408     3.1498    56.8526 </r>
       <r>    24.7696     2.4766    57.4192 </r>
       <r>    24.9983     2.6659    58.0291 </r>
       <r>    25.2271     2.7184    58.6511 </r>
       <r>    25.4559     3.1429    59.3701 </r>
       <r>    25.6847     3.0374    60.0651 </r>
       <r>    25.9135     2.5720    60.6535 </r>
       <r>    26.1423     2.4373    61.2111 </r>
       <r>    26.3711     2.3987    61.7599 </r>
       <r>    26.5998     2.1925    62.2615 </r>
       <r>    26.8286     2.4099    62.8129 </r>
       <r>    27.0574     3.1069    63.5237 </r>
       <r>    27.2862     3.6110    64.3498 </r>
       <r>    27.5150     3.1198    65.0636 </r>
       <r>    27.7438     2.6999    65.6813 </r>
       <r>    27.9726     1.8705    66.1092 </r>
       <r>    28.2013     2.7812    66.7455 </r>
       <r>    28.4301     3.0336    67.4396 </r>
       <r>    28.6589     2.4710    68.0049 </r>
       <r>    28.8877     2.7976    68.6449 </r>
       <r>    29.1165     2.7673    69.2781 </r>
       <r>    29.3453     3.2558    70.0229 </r>
       <r>    29.5741     2.8100    70.6658 </r>
       <r>    29.8028     2.7068    71.2851 </r>
       <r>    30.0316     2.6699    71.8959 </r>
       <r>    30.2604     2.8345    72.5444 </r>
       <r>    30.4892     2.9294    73.2146 </r>
       <r>    30.7180     3.1761    73.9413 </r>
       <r>    30.9468     3.4407    74.7285 </r>
       <r>    31.1756     2.6456    75.3337 </r>
       <r>    31.4043     3.0267    76.0262 </r>
       <r>    31.6331     2.8364    76.6751 </r>
       <r>    31.8619     2.7596    77.3065 </r>
       <r>    32.0907     2.9357    77.9781 </r>
       <r>    32.3195     3.5455    78.7892 </r>
       <r>    32.5483     4.0671    79.7197 </r>
       <r>    32.7771     3.6704    80.5595 </r>
       <r>    33.0058     3.5893    81.3807 </r>
       <r>    33.2346     2.4417    81.9393 </r>
       <r>    33.4634     2.5758    82.5286 </r>
       <r>    33.6922     2.7342    83.1541 </r>
       <r>    33.9210     3.1553    83.8760 </r>
       <r>    34.1498     2.6399    84.4800 </r>
       <r>    34.3786     2.6433    85.0848 </r>
       <r>    34.6073     2.7302    85.7094 </r>
       <r>    34.8361     3.1319    86.4259 </r>
       <r>    35.0649     3.5164    87.2304 </r>
       <r>    35.2937     3.6558    88.0668 </r>
       <r>    35.5225     3.6315    88.8976 </r>
       <r>    35.7513     3.1400    89.6160 </r>
       <r>    35.9801     3.2410    90.3575 </r>
       <r>    36.2088     3.5469    91.1690 </r>
       <r>    36.4376     2.8924    91.8308 </r>
       <r>    36.6664     2.0947    92.3100 </r>
       <r>    36.8952     2.8805    92.9690 </r>
       <r>    37.1240     1.8617    93.3949 </r>
       <r>    37.3528     2.2646    93.9130 </r>
       <r>    37.5815     2.0682    94.3862 </r>
       <r>    37.8103     1.7117    94.7778 </r>
       <r>    38.0391     1.1507    95.0411 </r>
       <r>    38.2679     1.0198    95.2744 </r>
       <r>    38.4967     1.1001    95.5261 </r>
       <r>    38.7255     0.4507    95.6292 </r>
       <r>    38.9543     0.3548    95.7104 </r>
       <r>    39.1830     0.2428    95.7659 </r>
       <r>    39.4118     0.0453    95.7763 </r>
       <r>    39.6406     0.2309    95.8291 </r>
       <r>    39.8694     0.4040    95.9215 </r>
       <r>    40.0982     0.0219    95.9265 </r>
       <r>    40.3270     0.0348    95.9345 </r>
       <r>    40.5558     0.2291    95.9869 </r>
       <r>    40.7845     0.0566    95.9999 </r>
       <r>    41.0133     0.0006    96.0000 </r>
       <r>    41.2421     0.0000    96.0000 </r>
       <r>    41.4709     0.0000    96.0000 </r>
       <r>    41.6997     0.0000    96.0000 </r>
       <r>    41.9285     0.0000    96.0000 </r>
       <r>    42.1573     0.0000    96.0000 </r>
       <r>    42.3860     0.0000    96.0000 </r>
       <r>    42.6148     0.0000    96.0000 </r>
       <r>    42.8436     0.0000    96.0000 </r>
       <r>    43.0724     0.0000    96.0000 </r>
       <r>    43.3012     0.0000    96.0000 </r>
       <r>    43.5300     0.0000    96.0000 </r>
       <r>    43.7588     0.0000    96.0000 </r>
      </set>
     </set>
    </array>
   </total>
  </dos>
 </calculation>
 <structure name="finalpos" >
  <crystal>
   <varray name="basis" >
    <v>       2.13648500       1.23350000       0.00000000 </v>
    <v>      -2.13648500       1.23350000       0.00000000 </v>
    <v>       0.00000000       0.00000000      15.00000000 </v>
   </varray>
   <i name="volume">     79.06062743 </i>
   <varray name="rec_basis" >
    <v>       0.23402926       0.40535063       0.00000000 </v>
    <v>      -0.23402926       0.40535063       0.00000000 </v>
    <v>       0.00000000       0.00000000       0.06666667 </v>
   </varray>
  </crystal>
  <varray name="positions" >
   <v>       0.33333300       0.66666600       0.10000000 </v>
   <v>       0.66666600       0.33333300       0.10000000 </v>
  </varray>
 </structure>
</modeling>
