   8   8   0  16
  0.4338553E+02  0.5169000E-09  0.5169000E-09  0.1500000E-08  0.5000000E-15
  1.000000000000000E-004
  CAR 
 Lattice                                 
      6.56958933    -21.14450242  301     -3.47630517      1.00000000
    -21.145  0.0000E+00  0.0000E+00
    -21.052  0.0000E+00  0.0000E+00
    -20.960  0.0000E+00  0.0000E+00
    -20.867  0.0000E+00  0.0000E+00
    -20.775  0.0000E+00  0.0000E+00
    -20.683  0.0000E+00  0.0000E+00
    -20.590  0.0000E+00  0.0000E+00
    -20.498  0.0000E+00  0.0000E+00
    -20.405  0.1297E-15  0.1198E-16
    -20.313  0.1203E-11  0.1112E-12
    -20.221  0.2187E-08  0.2021E-09
    -20.128  0.8063E-06  0.7469E-07
    -20.036  0.6398E-04  0.5985E-05
    -19.944  0.1207E-02  0.1175E-03
    -19.851  0.6424E-02  0.7109E-03
    -19.759  0.1300E-01  0.1912E-02
    -19.666  0.1590E-01  0.3381E-02
    -19.574  0.1760E-01  0.5006E-02
    -19.482  0.2037E-01  0.6888E-02
    -19.389  0.2650E-01  0.9336E-02
    -19.297  0.3389E-01  0.1247E-01
    -19.205  0.2567E-01  0.1484E-01
    -19.112  0.7749E-02  0.1555E-01
    -19.020  0.7451E-03  0.1562E-01
    -18.927  0.1907E-04  0.1562E-01
    -18.835  0.1129E-06  0.1562E-01
    -18.743  0.1414E-09  0.1562E-01
    -18.650  0.3549E-13  0.1563E-01
    -18.558  0.1457E-17  0.1563E-01
    -18.465  0.0000E+00  0.1563E-01
    -18.373  0.0000E+00  0.1563E-01
    -18.281  0.0000E+00  0.1563E-01
    -18.188  0.4855E-18  0.1563E-01
    -18.096  0.1252E-13  0.1563E-01
    -18.004  0.5671E-10  0.1563E-01
    -17.911  0.5100E-07  0.1563E-01
    -17.819  0.9519E-05  0.1563E-01
    -17.726  0.3975E-03  0.1566E-01
    -17.634  0.4223E-02  0.1605E-01
    -17.542  0.1432E-01  0.1738E-01
    -17.449  0.2294E-01  0.1949E-01
    -17.357  0.2514E-01  0.2182E-01
    -17.265  0.1984E-01  0.2365E-01
    -17.172  0.1508E-01  0.2504E-01
    -17.080  0.1441E-01  0.2637E-01
    -16.987  0.1487E-01  0.2775E-01
    -16.895  0.1552E-01  0.2918E-01
    -16.803  0.1640E-01  0.3070E-01
    -16.710  0.1765E-01  0.3233E-01
    -16.618  0.1971E-01  0.3415E-01
    -16.525  0.2367E-01  0.3634E-01
    -16.433  0.2790E-01  0.3891E-01
    -16.341  0.2548E-01  0.4127E-01
    -16.248  0.1977E-01  0.4309E-01
    -16.156  0.1608E-01  0.4458E-01
    -16.064  0.1329E-01  0.4581E-01
    -15.971  0.8591E-02  0.4660E-01
    -15.879  0.2698E-02  0.4685E-01
    -15.786  0.2759E-03  0.4687E-01
    -15.694  0.7276E-05  0.4687E-01
    -15.602  0.4328E-07  0.4687E-01
    -15.509  0.5369E-10  0.4687E-01
    -15.417  0.1326E-13  0.4688E-01
    -15.325  0.5017E-18  0.4688E-01
    -15.232  0.0000E+00  0.4688E-01
    -15.140  0.0000E+00  0.4688E-01
    -15.047  0.0000E+00  0.4688E-01
    -14.955  0.0000E+00  0.4688E-01
    -14.863  0.0000E+00  0.4688E-01
    -14.770  0.9710E-19  0.4688E-01
    -14.678  0.3063E-14  0.4688E-01
    -14.586  0.1679E-10  0.4688E-01
    -14.493  0.1821E-07  0.4688E-01
    -14.401  0.4071E-05  0.4688E-01
    -14.308  0.2012E-03  0.4689E-01
    -14.216  0.2477E-02  0.4712E-01
    -14.124  0.9316E-02  0.4798E-01
    -14.031  0.1531E-01  0.4940E-01
    -13.939  0.1788E-01  0.5105E-01
    -13.846  0.2066E-01  0.5296E-01
    -13.754  0.2562E-01  0.5533E-01
    -13.662  0.2713E-01  0.5783E-01
    -13.569  0.1988E-01  0.5967E-01
    -13.477  0.1406E-01  0.6097E-01
    -13.385  0.1219E-01  0.6209E-01
    -13.292  0.1141E-01  0.6315E-01
    -13.200  0.1090E-01  0.6415E-01
    -13.107  0.1050E-01  0.6512E-01
    -13.015  0.1016E-01  0.6606E-01
    -12.923  0.9888E-02  0.6698E-01
    -12.830  0.1012E-01  0.6791E-01
    -12.738  0.1203E-01  0.6902E-01
    -12.646  0.1497E-01  0.7041E-01
    -12.553  0.1560E-01  0.7185E-01
    -12.461  0.1474E-01  0.7321E-01
    -12.368  0.1376E-01  0.7448E-01
    -12.276  0.1282E-01  0.7566E-01
    -12.184  0.1206E-01  0.7678E-01
    -12.091  0.1141E-01  0.7783E-01
    -11.999  0.1080E-01  0.7883E-01
    -11.906  0.9703E-02  0.7973E-01
    -11.814  0.6930E-02  0.8037E-01
    -11.722  0.4224E-02  0.8076E-01
    -11.629  0.3531E-02  0.8108E-01
    -11.537  0.3565E-02  0.8141E-01
    -11.445  0.3660E-02  0.8175E-01
    -11.352  0.3816E-02  0.8210E-01
    -11.260  0.4414E-02  0.8251E-01
    -11.167  0.5637E-02  0.8303E-01
    -11.075  0.6475E-02  0.8363E-01
    -10.983  0.6942E-02  0.8427E-01
    -10.890  0.8237E-02  0.8503E-01
    -10.798  0.1053E-01  0.8600E-01
    -10.706  0.1206E-01  0.8712E-01
    -10.613  0.1286E-01  0.8831E-01
    -10.521  0.1367E-01  0.8957E-01
    -10.428  0.1477E-01  0.9093E-01
    -10.336  0.1663E-01  0.9247E-01
    -10.244  0.1832E-01  0.9416E-01
    -10.151  0.1584E-01  0.9562E-01
    -10.059  0.1170E-01  0.9671E-01
     -9.966  0.1019E-01  0.9765E-01
     -9.874  0.1406E-01  0.9895E-01
     -9.782  0.2087E-01  0.1009E+00
     -9.689  0.2101E-01  0.1028E+00
     -9.597  0.1806E-01  0.1045E+00
     -9.505  0.1629E-01  0.1060E+00
     -9.412  0.1499E-01  0.1074E+00
     -9.320  0.1458E-01  0.1087E+00
     -9.227  0.1480E-01  0.1101E+00
     -9.135  0.1586E-01  0.1116E+00
     -9.043  0.1750E-01  0.1132E+00
     -8.950  0.1936E-01  0.1150E+00
     -8.858  0.2052E-01  0.1169E+00
     -8.766  0.1946E-01  0.1187E+00
     -8.673  0.2014E-01  0.1205E+00
     -8.581  0.2308E-01  0.1226E+00
     -8.488  0.2310E-01  0.1248E+00
     -8.396  0.1984E-01  0.1266E+00
     -8.304  0.1712E-01  0.1282E+00
     -8.211  0.1557E-01  0.1296E+00
     -8.119  0.1610E-01  0.1311E+00
     -8.026  0.1997E-01  0.1330E+00
     -7.934  0.2486E-01  0.1353E+00
     -7.842  0.3085E-01  0.1381E+00
     -7.749  0.3434E-01  0.1413E+00
     -7.657  0.3408E-01  0.1444E+00
     -7.565  0.3275E-01  0.1475E+00
     -7.472  0.2522E-01  0.1498E+00
     -7.380  0.1636E-01  0.1513E+00
     -7.287  0.1334E-01  0.1525E+00
     -7.195  0.1647E-01  0.1540E+00
     -7.103  0.1603E-01  0.1555E+00
     -7.010  0.1359E-01  0.1568E+00
     -6.918  0.1266E-01  0.1580E+00
     -6.826  0.1263E-01  0.1591E+00
     -6.733  0.1362E-01  0.1604E+00
     -6.641  0.1780E-01  0.1620E+00
     -6.548  0.2654E-01  0.1645E+00
     -6.456  0.4029E-01  0.1682E+00
     -6.364  0.5963E-01  0.1737E+00
     -6.271  0.5968E-01  0.1792E+00
     -6.179  0.4313E-01  0.1832E+00
     -6.087  0.3054E-01  0.1860E+00
     -5.994  0.2152E-01  0.1880E+00
     -5.902  0.1833E-01  0.1897E+00
     -5.809  0.1831E-01  0.1914E+00
     -5.717  0.1879E-01  0.1931E+00
     -5.625  0.1939E-01  0.1949E+00
     -5.532  0.2010E-01  0.1968E+00
     -5.440  0.2097E-01  0.1987E+00
     -5.347  0.2204E-01  0.2008E+00
     -5.255  0.2343E-01  0.2029E+00
     -5.163  0.2543E-01  0.2053E+00
     -5.070  0.2865E-01  0.2079E+00
     -4.978  0.3219E-01  0.2109E+00
     -4.886  0.3356E-01  0.2140E+00
     -4.793  0.3572E-01  0.2173E+00
     -4.701  0.3750E-01  0.2208E+00
     -4.608  0.3419E-01  0.2239E+00
     -4.516  0.2870E-01  0.2266E+00
     -4.424  0.1952E-01  0.2284E+00
     -4.331  0.1192E-01  0.2295E+00
     -4.239  0.9892E-02  0.2304E+00
     -4.147  0.9459E-02  0.2313E+00
     -4.054  0.9152E-02  0.2321E+00
     -3.962  0.8857E-02  0.2329E+00
     -3.869  0.8200E-02  0.2337E+00
     -3.777  0.5603E-02  0.2342E+00
     -3.685  0.1766E-02  0.2344E+00
     -3.592  0.1762E-03  0.2344E+00
     -3.500  0.4476E-05  0.2344E+00
     -3.407  0.4308E-06  0.2344E+00
     -3.315  0.3569E-04  0.2344E+00
     -3.223  0.7422E-03  0.2344E+00
     -3.130  0.4304E-02  0.2348E+00
     -3.038  0.9307E-02  0.2357E+00
     -2.946  0.1185E-01  0.2368E+00
     -2.853  0.1336E-01  0.2380E+00
     -2.761  0.1558E-01  0.2395E+00
     -2.668  0.1933E-01  0.2413E+00
     -2.576  0.2109E-01  0.2432E+00
     -2.484  0.1699E-01  0.2448E+00
     -2.391  0.1257E-01  0.2459E+00
     -2.299  0.9974E-02  0.2469E+00
     -2.207  0.8236E-02  0.2476E+00
     -2.114  0.6889E-02  0.2483E+00
     -2.022  0.5668E-02  0.2488E+00
     -1.929  0.4232E-02  0.2492E+00
     -1.837  0.2913E-02  0.2494E+00
     -1.745  0.2165E-02  0.2496E+00
     -1.652  0.1651E-02  0.2498E+00
     -1.560  0.1172E-02  0.2499E+00
     -1.467  0.7143E-03  0.2500E+00
     -1.375  0.3611E-03  0.2500E+00
     -1.283  0.3462E-03  0.2500E+00
     -1.190  0.6865E-03  0.2501E+00
     -1.098  0.1149E-02  0.2502E+00
     -1.006  0.1639E-02  0.2504E+00
     -0.913  0.2153E-02  0.2506E+00
     -0.821  0.2703E-02  0.2508E+00
     -0.728  0.3303E-02  0.2511E+00
     -0.636  0.3974E-02  0.2515E+00
     -0.544  0.4748E-02  0.2519E+00
     -0.451  0.5683E-02  0.2524E+00
     -0.359  0.6980E-02  0.2531E+00
     -0.267  0.9986E-02  0.2540E+00
     -0.174  0.1759E-01  0.2556E+00
     -0.082  0.2408E-01  0.2579E+00
      0.011  0.2081E-01  0.2598E+00
      0.103  0.1558E-01  0.2612E+00
      0.195  0.1285E-01  0.2624E+00
      0.288  0.1133E-01  0.2634E+00
      0.380  0.1064E-01  0.2644E+00
      0.472  0.1116E-01  0.2655E+00
      0.565  0.1184E-01  0.2666E+00
      0.657  0.1125E-01  0.2676E+00
      0.750  0.9368E-02  0.2685E+00
      0.842  0.9097E-02  0.2693E+00
      0.934  0.1215E-01  0.2704E+00
      1.027  0.1419E-01  0.2717E+00
      1.119  0.1478E-01  0.2731E+00
      1.212  0.1519E-01  0.2745E+00
      1.304  0.1569E-01  0.2760E+00
      1.396  0.1636E-01  0.2775E+00
      1.489  0.1742E-01  0.2791E+00
      1.581  0.1875E-01  0.2808E+00
      1.673  0.1886E-01  0.2825E+00
      1.766  0.1825E-01  0.2842E+00
      1.858  0.1962E-01  0.2860E+00
      1.951  0.2241E-01  0.2881E+00
      2.043  0.2347E-01  0.2903E+00
      2.135  0.2346E-01  0.2925E+00
      2.228  0.2414E-01  0.2947E+00
      2.320  0.2703E-01  0.2972E+00
      2.412  0.2970E-01  0.2999E+00
      2.505  0.3027E-01  0.3027E+00
      2.597  0.3022E-01  0.3055E+00
      2.690  0.3011E-01  0.3083E+00
      2.782  0.3002E-01  0.3111E+00
      2.874  0.2993E-01  0.3138E+00
      2.967  0.2986E-01  0.3166E+00
      3.059  0.2980E-01  0.3193E+00
      3.152  0.2973E-01  0.3221E+00
      3.244  0.2969E-01  0.3248E+00
      3.336  0.2966E-01  0.3276E+00
      3.429  0.2969E-01  0.3303E+00
      3.521  0.2967E-01  0.3331E+00
      3.613  0.2948E-01  0.3358E+00
      3.706  0.2958E-01  0.3385E+00
      3.798  0.2986E-01  0.3413E+00
      3.891  0.3051E-01  0.3441E+00
      3.983  0.3178E-01  0.3470E+00
      4.075  0.3069E-01  0.3499E+00
      4.168  0.2600E-01  0.3523E+00
      4.260  0.2373E-01  0.3545E+00
      4.352  0.2716E-01  0.3570E+00
      4.445  0.3097E-01  0.3598E+00
      4.537  0.2782E-01  0.3624E+00
      4.630  0.2192E-01  0.3644E+00
      4.722  0.1819E-01  0.3661E+00
      4.814  0.1799E-01  0.3678E+00
      4.907  0.2068E-01  0.3697E+00
      4.999  0.2126E-01  0.3716E+00
      5.092  0.1602E-01  0.3731E+00
      5.184  0.1106E-01  0.3741E+00
      5.276  0.6665E-02  0.3748E+00
      5.369  0.2295E-02  0.3750E+00
      5.461  0.3412E-03  0.3750E+00
      5.553  0.1702E-04  0.3750E+00
      5.646  0.2270E-06  0.3750E+00
      5.738  0.6909E-09  0.3750E+00
      5.831  0.4365E-12  0.3750E+00
      5.923  0.5416E-16  0.3750E+00
      6.015  0.0000E+00  0.3750E+00
      6.108  0.0000E+00  0.3750E+00
      6.200  0.0000E+00  0.3750E+00
      6.292  0.0000E+00  0.3750E+00
      6.385  0.0000E+00  0.3750E+00
      6.477  0.0000E+00  0.3750E+00
      6.570  0.0000E+00  0.3750E+00
