    8    8  128    1
  0.4338553E+02  0.5169000E-09  0.5169000E-09  0.1500000E-08  0.5000000E-15
  1.000000000000000E-004
  CAR 
 Lattice                                 
     30   1741     24
 
  0.0000000E+00  0.0000000E+00  0.0000000E+00  0.2872738E-03
      1        -19.884771   1.000000
      2        -15.983181   1.000000
      3        -15.983004   1.000000
      4        -13.641827   1.000000
      5        -13.641771   1.000000
      6        -12.573306   1.000000
      7        -11.250068   1.000000
      8         -8.688689   1.000000
      9         -8.456643   1.000000
     10         -6.304363   1.000000
     11         -6.304181   1.000000
     12         -4.480750   1.000000
     13         -4.480661   1.000000
     14         -3.791962   0.999996
     15         -3.791787   0.999996
     16         -1.963915   0.000000
     17         -0.227784   0.000000
     18         -0.227752   0.000000
     19          0.431760   0.000000
     20          0.841340   0.000000
     21          1.844282   0.000000
     22          2.268469   0.000000
     23          4.234162   0.000000
     24          4.857210   0.000000
 
  0.1694915E-01  0.1986371E-17  0.0000000E+00  0.5745475E-03
      1        -19.883638   1.000000
      2        -15.988894   1.000000
      3        -15.984979   1.000000
      4        -13.643302   1.000000
      5        -13.637596   1.000000
      6        -12.567710   1.000000
      7        -11.243189   1.000000
      8         -8.686974   1.000000
      9         -8.458928   1.000000
     10         -6.309394   1.000000
     11         -6.305326   1.000000
     12         -4.485920   1.000000
     13         -4.481531   1.000000
     14         -3.797744   0.999997
     15         -3.794816   0.999997
     16         -1.974310   0.000000
     17         -0.225183   0.000000
     18         -0.212388   0.000000
     19          0.436434   0.000000
     20          0.843486   0.000000
     21          1.846604   0.000000
     22          2.270627   0.000000
     23          4.236282   0.000000
     24          4.859547   0.000000
 
  0.2957054E-17  0.1694915E-01  0.0000000E+00  0.5745475E-03
      1        -19.883638   1.000000
      2        -15.988858   1.000000
      3        -15.985016   1.000000
      4        -13.643329   1.000000
      5        -13.637569   1.000000
      6        -12.567710   1.000000
      7        -11.243189   1.000000
      8         -8.686974   1.000000
      9         -8.458928   1.000000
     10         -6.309371   1.000000
     11         -6.305349   1.000000
     12         -4.485890   1.000000
     13         -4.481560   1.000000
     14         -3.797773   0.999997
     15         -3.794786   0.999997
     16         -1.974310   0.000000
     17         -0.225157   0.000000
     18         -0.212414   0.000000
     19          0.436434   0.000000
     20          0.843486   0.000000
     21          1.846604   0.000000
     22          2.270627   0.000000
     23          4.236282   0.000000
     24          4.859547   0.000000
 
 -0.1694915E-01  0.1694915E-01  0.0000000E+00  0.5745475E-03
      1        -19.883638   1.000000
      2        -15.989003   1.000000
      3        -15.984870   1.000000
      4        -13.643280   1.000000
      5        -13.637617   1.000000
      6        -12.567711   1.000000
      7        -11.243188   1.000000
      8         -8.686974   1.000000
      9         -8.458928   1.000000
     10         -6.309516   1.000000
     11         -6.305204   1.000000
     12         -4.485966   1.000000
     13         -4.481484   1.000000
     14         -3.797885   0.999997
     15         -3.794674   0.999997
     16         -1.974311   0.000000
     17         -0.225178   0.000000
     18         -0.212391   0.000000
     19          0.436433   0.000000
     20          0.843486   0.000000
     21          1.846604   0.000000
     22          2.270627   0.000000
     23          4.236282   0.000000
     24          4.859547   0.000000
 
  0.3389831E-01  0.3972742E-17  0.0000000E+00  0.5745475E-03
      1        -19.880246   1.000000
      2        -16.006202   1.000000
      3        -15.990529   1.000000
      4        -13.647903   1.000000
      5        -13.625050   1.000000
      6        -12.550913   1.000000
      7        -11.222699   1.000000
      8         -8.681847   1.000000
      9         -8.466006   1.000000
     10         -6.324983   1.000000
     11         -6.308443   1.000000
     12         -4.501725   1.000000
     13         -4.484245   1.000000
     14         -3.815767   0.999999
     15         -3.803551   0.999998
     16         -2.004319   0.000000
     17         -0.217743   0.000000
     18         -0.167945   0.000000
     19          0.450580   0.000000
     20          0.849924   0.000000
     21          1.853574   0.000000
     22          2.277097   0.000000
     23          4.242634   0.000000
     24          4.866479   0.000000
 
  0.5914108E-17  0.3389831E-01  0.0000000E+00  0.5745475E-03
      1        -19.880246   1.000000
      2        -16.006166   1.000000
      3        -15.990565   1.000000
      4        -13.647930   1.000000
      5        -13.625023   1.000000
      6        -12.550912   1.000000
      7        -11.222699   1.000000
      8         -8.681847   1.000000
      9         -8.466007   1.000000
     10         -6.324960   1.000000
     11         -6.308465   1.000000
     12         -4.501697   1.000000
     13         -4.484274   1.000000
     14         -3.815795   0.999999
     15         -3.803522   0.999998
     16         -2.004320   0.000000
     17         -0.217718   0.000000
     18         -0.167969   0.000000
     19          0.450580   0.000000
     20          0.849924   0.000000
     21          1.853574   0.000000
     22          2.277097   0.000000
     23          4.242634   0.000000
     24          4.866479   0.000000
 
 -0.3389831E-01  0.3389831E-01  0.0000000E+00  0.5745475E-03
      1        -19.880246   1.000000
      2        -16.006312   1.000000
      3        -15.990419   1.000000
      4        -13.647881   1.000000
      5        -13.625070   1.000000
      6        -12.550916   1.000000
      7        -11.222697   1.000000
      8         -8.681847   1.000000
      9         -8.466007   1.000000
     10         -6.325106   1.000000
     11         -6.308319   1.000000
     12         -4.501772   1.000000
     13         -4.484198   1.000000
     14         -3.815909   0.999999
     15         -3.803409   0.999998
     16         -2.004322   0.000000
     17         -0.217739   0.000000
     18         -0.167942   0.000000
     19          0.450576   0.000000
     20          0.849924   0.000000
     21          1.853574   0.000000
     22          2.277097   0.000000
     23          4.242634   0.000000
     24          4.866478   0.000000
 
  0.5084746E-01  0.6723154E-17  0.0000000E+00  0.5745475E-03
      1        -19.874601   1.000000
      2        -16.034470   1.000000
      3        -15.999606   1.000000
      4        -13.655773   1.000000
      5        -13.604320   1.000000
      6        -12.522883   1.000000
      7        -11.188973   1.000000
      8         -8.673294   1.000000
      9         -8.477826   1.000000
     10         -6.350743   1.000000
     11         -6.313396   1.000000
     12         -4.527867   1.000000
     13         -4.488619   1.000000
     14         -3.845531   1.000000
     15         -3.817975   0.999999
     16         -2.050529   0.000000
     17         -0.205383   0.000000
     18         -0.098448   0.000000
     19          0.474791   0.000000
     20          0.860648   0.000000
     21          1.865210   0.000000
     22          2.287878   0.000000
     23          4.253224   0.000000
     24          4.877843   0.000000
 
  0.6723154E-17  0.5084746E-01  0.0000000E+00  0.5745475E-03
      1        -19.874601   1.000000
      2        -16.034435   1.000000
      3        -15.999641   1.000000
      4        -13.655800   1.000000
      5        -13.604294   1.000000
      6        -12.522882   1.000000
      7        -11.188974   1.000000
      8         -8.673294   1.000000
      9         -8.477826   1.000000
     10         -6.350721   1.000000
     11         -6.313418   1.000000
     12         -4.527838   1.000000
     13         -4.488648   1.000000
     14         -3.845560   1.000000
     15         -3.817946   0.999999
     16         -2.050530   0.000000
     17         -0.205358   0.000000
     18         -0.098472   0.000000
     19          0.474790   0.000000
     20          0.860648   0.000000
     21          1.865210   0.000000
     22          2.287878   0.000000
     23          4.253224   0.000000
     24          4.877843   0.000000
 
 -0.5084746E-01  0.5084746E-01  0.0000000E+00  0.5745475E-03
      1        -19.874601   1.000000
      2        -16.034580   1.000000
      3        -15.999496   1.000000
      4        -13.655749   1.000000
      5        -13.604340   1.000000
      6        -12.522890   1.000000
      7        -11.188971   1.000000
      8         -8.673294   1.000000
      9         -8.477826   1.000000
     10         -6.350867   1.000000
     11         -6.313272   1.000000
     12         -4.527913   1.000000
     13         -4.488572   1.000000
     14         -3.845673   1.000000
     15         -3.817833   0.999999
     16         -2.050535   0.000000
     17         -0.205379   0.000000
     18         -0.098437   0.000000
     19          0.474781   0.000000
     20          0.860647   0.000000
     21          1.865210   0.000000
     22          2.287878   0.000000
     23          4.253224   0.000000
     24          4.877841   0.000000
 
  0.6779661E-01  0.7945485E-17  0.0000000E+00  0.5745475E-03
      1        -19.866722   1.000000
      2        -16.072904   1.000000
      3        -16.011970   1.000000
      4        -13.667109   1.000000
      5        -13.575675   1.000000
      6        -12.483662   1.000000
      7        -11.142582   1.000000
      8         -8.661335   1.000000
      9         -8.494533   1.000000
     10         -6.386484   1.000000
     11         -6.319882   1.000000
     12         -4.564107   1.000000
     13         -4.494616   1.000000
     14         -3.886869   1.000000
     15         -3.837980   1.000000
     16         -2.108803   0.000000
     17         -0.188138   0.000000
     18         -0.009770   0.000000
     19          0.510200   0.000000
     20          0.875654   0.000000
     21          1.881542   0.000000
     22          2.302968   0.000000
     23          4.268047   0.000000
     24          4.893409   0.000000
 
  0.1182822E-16  0.6779661E-01  0.0000000E+00  0.5745475E-03
      1        -19.866722   1.000000
      2        -16.072870   1.000000
      3        -16.012004   1.000000
      4        -13.667135   1.000000
      5        -13.575648   1.000000
      6        -12.483660   1.000000
      7        -11.142583   1.000000
      8         -8.661335   1.000000
      9         -8.494534   1.000000
     10         -6.386462   1.000000
     11         -6.319904   1.000000
     12         -4.564079   1.000000
     13         -4.494645   1.000000
     14         -3.886897   1.000000
     15         -3.837951   1.000000
     16         -2.108805   0.000000
     17         -0.188112   0.000000
     18         -0.009792   0.000000
     19          0.510199   0.000000
     20          0.875654   0.000000
     21          1.881542   0.000000
     22          2.302968   0.000000
     23          4.268048   0.000000
     24          4.893410   0.000000
 
 -0.6779661E-01  0.6779661E-01  0.0000000E+00  0.5745475E-03
      1        -19.866722   1.000000
      2        -16.073013   1.000000
      3        -16.011861   1.000000
      4        -13.667082   1.000000
      5        -13.575693   1.000000
      6        -12.483673   1.000000
      7        -11.142578   1.000000
      8         -8.661335   1.000000
      9         -8.494534   1.000000
     10         -6.386608   1.000000
     11         -6.319758   1.000000
     12         -4.564152   1.000000
     13         -4.494569   1.000000
     14         -3.887009   1.000000
     15         -3.837839   1.000000
     16         -2.108813   0.000000
     17         -0.188133   0.000000
     18         -0.009747   0.000000
     19          0.510183   0.000000
     20          0.875654   0.000000
     21          1.881541   0.000000
     22          2.302968   0.000000
     23          4.268047   0.000000
     24          4.893406   0.000000
 
  0.8474576E-01  0.1303647E-16  0.0000000E+00  0.5745475E-03
      1        -19.856638   1.000000
      2        -16.120503   1.000000
      3        -16.027310   1.000000
      4        -13.682004   1.000000
      5        -13.539461   1.000000
      6        -12.433465   1.000000
      7        -11.084240   1.000000
      8         -8.645970   1.000000
      9         -8.516239   1.000000
     10         -6.431871   1.000000
     11         -6.327468   1.000000
     12         -4.610043   1.000000
     13         -4.502151   1.000000
     14         -3.939634   1.000000
     15         -3.863356   1.000000
     16         -2.175013   0.000000
     17         -0.166256   0.000000
     18          0.091748   0.000000
     19          0.558869   0.000000
     20          0.894935   0.000000
     21          1.902618   0.000000
     22          2.322361   0.000000
     23          4.287104   0.000000
     24          4.912922   0.000000
 
 -0.1667883E-17  0.8474576E-01  0.0000000E+00  0.5745475E-03
      1        -19.856638   1.000000
      2        -16.120470   1.000000
      3        -16.027344   1.000000
      4        -13.682029   1.000000
      5        -13.539436   1.000000
      6        -12.433462   1.000000
      7        -11.084243   1.000000
      8         -8.645970   1.000000
      9         -8.516240   1.000000
     10         -6.431849   1.000000
     11         -6.327488   1.000000
     12         -4.610015   1.000000
     13         -4.502179   1.000000
     14         -3.939661   1.000000
     15         -3.863328   1.000000
     16         -2.175015   0.000000
     17         -0.166230   0.000000
     18          0.091728   0.000000
     19          0.558867   0.000000
     20          0.894935   0.000000
     21          1.902619   0.000000
     22          2.322361   0.000000
     23          4.287104   0.000000
     24          4.912923   0.000000
 
 -0.8474576E-01  0.8474576E-01  0.0000000E+00  0.5745475E-03
      1        -19.856637   1.000000
      2        -16.120612   1.000000
      3        -16.027203   1.000000
      4        -13.681975   1.000000
      5        -13.539478   1.000000
      6        -12.433481   1.000000
      7        -11.084235   1.000000
      8         -8.645969   1.000000
      9         -8.516241   1.000000
     10         -6.431995   1.000000
     11         -6.327342   1.000000
     12         -4.610087   1.000000
     13         -4.502104   1.000000
     14         -3.939772   1.000000
     15         -3.863217   1.000000
     16         -2.175027   0.000000
     17         -0.166251   0.000000
     18          0.091786   0.000000
     19          0.558840   0.000000
     20          0.894935   0.000000
     21          1.902617   0.000000
     22          2.322361   0.000000
     23          4.287104   0.000000
     24          4.912918   0.000000
 
  0.1016949E+00  0.2508043E-16  0.0000000E+00  0.5745475E-03
      1        -19.844374   1.000000
      2        -16.176142   1.000000
      3        -16.045268   1.000000
      4        -13.700384   1.000000
      5        -13.496091   1.000000
      6        -12.372704   1.000000
      7        -11.014748   1.000000
      8         -8.627219   1.000000
      9         -8.543150   1.000000
     10         -6.486545   1.000000
     11         -6.335655   1.000000
     12         -4.665089   1.000000
     13         -4.511111   1.000000
     14         -4.003453   1.000000
     15         -3.893958   1.000000
     16         -2.245694   0.000000
     17         -0.139865   0.000000
     18          0.198399   0.000000
     19          0.624068   0.000000
     20          0.918484   0.000000
     21          1.928514   0.000000
     22          2.346055   0.000000
     23          4.310391   0.000000
     24          4.936163   0.000000
 
  0.2508043E-16  0.1016949E+00  0.0000000E+00  0.5745475E-03
      1        -19.844374   1.000000
      2        -16.176109   1.000000
      3        -16.045301   1.000000
      4        -13.700410   1.000000
      5        -13.496066   1.000000
      6        -12.372701   1.000000
      7        -11.014751   1.000000
      8         -8.627220   1.000000
      9         -8.543151   1.000000
     10         -6.486523   1.000000
     11         -6.335675   1.000000
     12         -4.665062   1.000000
     13         -4.511140   1.000000
     14         -4.003480   1.000000
     15         -3.893930   1.000000
     16         -2.245696   0.000000
     17         -0.139839   0.000000
     18          0.198381   0.000000
     19          0.624064   0.000000
     20          0.918484   0.000000
     21          1.928514   0.000000
     22          2.346055   0.000000
     23          4.310391   0.000000
     24          4.936163   0.000000
 
 -0.1016949E+00  0.1016949E+00  0.0000000E+00  0.5745475E-03
      1        -19.844373   1.000000
      2        -16.176250   1.000000
      3        -16.045162   1.000000
      4        -13.700353   1.000000
      5        -13.496106   1.000000
      6        -12.372725   1.000000
      7        -11.014740   1.000000
      8         -8.627219   1.000000
      9         -8.543152   1.000000
     10         -6.486669   1.000000
     11         -6.335529   1.000000
     12         -4.665132   1.000000
     13         -4.511065   1.000000
     14         -4.003589   1.000000
     15         -3.893821   1.000000
     16         -2.245711   0.000000
     17         -0.139859   0.000000
     18          0.198455   0.000000
     19          0.624025   0.000000
     20          0.918484   0.000000
     21          1.928511   0.000000
     22          2.346055   0.000000
     23          4.310390   0.000000
     24          4.936159   0.000000
 
  0.1186441E+00  0.1465457E-16  0.0000000E+00  0.5745475E-03
      1        -19.829986   1.000000
      2        -16.238662   1.000000
      3        -16.065445   1.000000
      4        -13.721989   1.000000
      5        -13.446029   1.000000
      6        -12.302026   1.000000
      7        -10.934930   1.000000
      8         -8.605130   1.000000
      9         -8.575441   1.000000
     10         -6.550120   1.000000
     11         -6.343919   1.000000
     12         -4.728747   1.000000
     13         -4.521379   1.000000
     14         -4.077883   1.000000
     15         -3.929496   1.000000
     16         -2.318145   0.000000
     17         -0.109570   0.000000
     18          0.302498   0.000000
     19          0.709816   0.000000
     20          0.946292   0.000000
     21          1.959332   0.000000
     22          2.374043   0.000000
     23          4.337889   0.000000
     24          4.962930   0.000000
 
  0.7767781E-18  0.1186441E+00  0.0000000E+00  0.5745475E-03
      1        -19.829986   1.000000
      2        -16.238630   1.000000
      3        -16.065478   1.000000
      4        -13.722013   1.000000
      5        -13.446005   1.000000
      6        -12.302022   1.000000
      7        -10.934934   1.000000
      8         -8.605130   1.000000
      9         -8.575443   1.000000
     10         -6.550099   1.000000
     11         -6.343938   1.000000
     12         -4.728721   1.000000
     13         -4.521407   1.000000
     14         -4.077910   1.000000
     15         -3.929469   1.000000
     16         -2.318147   0.000000
     17         -0.109545   0.000000
     18          0.302484   0.000000
     19          0.709810   0.000000
     20          0.946293   0.000000
     21          1.959333   0.000000
     22          2.374043   0.000000
     23          4.337889   0.000000
     24          4.962931   0.000000
 
 -0.1186441E+00  0.1186441E+00  0.0000000E+00  0.5745475E-03
      1        -19.829984   1.000000
      2        -16.238769   1.000000
      3        -16.065341   1.000000
      4        -13.721956   1.000000
      5        -13.446042   1.000000
      6        -12.302052   1.000000
      7        -10.934920   1.000000
      8         -8.605129   1.000000
      9         -8.575444   1.000000
     10         -6.550245   1.000000
     11         -6.343792   1.000000
     12         -4.728789   1.000000
     13         -4.521333   1.000000
     14         -4.078017   1.000000
     15         -3.929361   1.000000
     16         -2.318166   0.000000
     17         -0.109565   0.000000
     18          0.302571   0.000000
     19          0.709759   0.000000
     20          0.946292   0.000000
     21          1.959329   0.000000
     22          2.374043   0.000000
     23          4.337889   0.000000
     24          4.962926   0.000000
 
  0.1355932E+00  0.2752509E-16  0.0000000E+00  0.5745475E-03
      1        -19.813519   1.000000
      2        -16.306911   1.000000
      3        -16.087436   1.000000
      4        -13.746400   1.000000
      5        -13.389749   1.000000
      6        -12.222221   1.000000
      7        -10.845594   1.000000
      8         -8.613241   1.000000
      9         -8.579700   1.000000
     10         -6.622034   1.000000
     11         -6.351683   1.000000
     12         -4.800287   1.000000
     13         -4.532770   1.000000
     14         -4.162513   1.000000
     15         -3.969530   1.000000
     16         -2.390322   0.000000
     17         -0.075416   0.000000
     18          0.398334   0.000000
     19          0.818870   0.000000
     20          0.978351   0.000000
     21          1.995237   0.000000
     22          2.406321   0.000000
     23          4.369602   0.000000
     24          4.993036   0.000000
 
  0.1975963E-16  0.1355932E+00  0.0000000E+00  0.5745475E-03
      1        -19.813520   1.000000
      2        -16.306879   1.000000
      3        -16.087468   1.000000
      4        -13.746424   1.000000
      5        -13.389726   1.000000
      6        -12.222216   1.000000
      7        -10.845599   1.000000
      8         -8.613243   1.000000
      9         -8.579700   1.000000
     10         -6.622012   1.000000
     11         -6.351702   1.000000
     12         -4.800262   1.000000
     13         -4.532798   1.000000
     14         -4.162539   1.000000
     15         -3.969503   1.000000
     16         -2.390324   0.000000
     17         -0.075391   0.000000
     18          0.398324   0.000000
     19          0.818861   0.000000
     20          0.978351   0.000000
     21          1.995238   0.000000
     22          2.406321   0.000000
     23          4.369603   0.000000
     24          4.993037   0.000000
 
 -0.1355932E+00  0.1355932E+00  0.0000000E+00  0.5745475E-03
      1        -19.813517   1.000000
      2        -16.307017   1.000000
      3        -16.087333   1.000000
      4        -13.746365   1.000000
      5        -13.389760   1.000000
      6        -12.222252   1.000000
      7        -10.845582   1.000000
      8         -8.613245   1.000000
      9         -8.579699   1.000000
     10         -6.622159   1.000000
     11         -6.351556   1.000000
     12         -4.800328   1.000000
     13         -4.532724   1.000000
     14         -4.162644   1.000000
     15         -3.969398   1.000000
     16         -2.390346   0.000000
     17         -0.075410   0.000000
     18          0.398420   0.000000
     19          0.818804   0.000000
     20          0.978351   0.000000
     21          1.995232   0.000000
     22          2.406321   0.000000
     23          4.369602   0.000000
     24          4.993032   0.000000
 
  0.1525424E+00  0.1709923E-16  0.0000000E+00  0.5745475E-03
      1        -19.795038   1.000000
      2        -16.379787   1.000000
      3        -16.110834   1.000000
      4        -13.773104   1.000000
      5        -13.327754   1.000000
      6        -12.134170   1.000000
      7        -10.747519   1.000000
      8         -8.656639   1.000000
      9         -8.550954   1.000000
     10         -6.701771   1.000000
     11         -6.358365   1.000000
     12         -4.878969   1.000000
     13         -4.545171   1.000000
     14         -4.256872   1.000000
     15         -4.013846   1.000000
     16         -2.460917   0.000000
     17         -0.037728   0.000000
     18          0.484452   0.000000
     19          0.950025   0.000000
     20          1.014650   0.000000
     21          2.036474   0.000000
     22          2.442883   0.000000
     23          4.405524   0.000000
     24          5.026319   0.000000
 
  0.1709923E-16  0.1525424E+00  0.0000000E+00  0.5745475E-03
      1        -19.795038   1.000000
      2        -16.379756   1.000000
      3        -16.110865   1.000000
      4        -13.773127   1.000000
      5        -13.327731   1.000000
      6        -12.134164   1.000000
      7        -10.747524   1.000000
      8         -8.656642   1.000000
      9         -8.550954   1.000000
     10         -6.701749   1.000000
     11         -6.358383   1.000000
     12         -4.878945   1.000000
     13         -4.545199   1.000000
     14         -4.256898   1.000000
     15         -4.013819   1.000000
     16         -2.460920   0.000000
     17         -0.037703   0.000000
     18          0.484445   0.000000
     19          0.950014   0.000000
     20          1.014650   0.000000
     21          2.036474   0.000000
     22          2.442883   0.000000
     23          4.405525   0.000000
     24          5.026320   0.000000
 
 -0.1525424E+00  0.1525424E+00  0.0000000E+00  0.5745475E-03
      1        -19.795035   1.000000
      2        -16.379892   1.000000
      3        -16.110733   1.000000
      4        -13.773068   1.000000
      5        -13.327762   1.000000
      6        -12.134205   1.000000
      7        -10.747504   1.000000
      8         -8.656644   1.000000
      9         -8.550953   1.000000
     10         -6.701896   1.000000
     11         -6.358237   1.000000
     12         -4.879008   1.000000
     13         -4.545125   1.000000
     14         -4.257000   1.000000
     15         -4.013716   1.000000
     16         -2.460945   0.000000
     17         -0.037721   0.000000
     18          0.484543   0.000000
     19          0.949959   0.000000
     20          1.014650   0.000000
     21          2.036467   0.000000
     22          2.442883   0.000000
     23          4.405524   0.000000
     24          5.026316   0.000000
 
  0.1694915E+00  0.2220429E-16  0.0000000E+00  0.5745475E-03
      1        -19.774626   1.000000
      2        -16.456270   1.000000
      3        -16.135245   1.000000
      4        -13.801535   1.000000
      5        -13.260544   1.000000
      6        -12.038786   1.000000
      7        -10.641445   1.000000
      8         -8.705700   1.000000
      9         -8.518990   1.000000
     10         -6.788741   1.000000
     11         -6.363439   1.000000
     12         -4.963989   1.000000
     13         -4.558360   1.000000
     14         -4.360392   1.000000
     15         -4.062002   1.000000
     16         -2.528966   0.000000
     17          0.003087   0.000000
     18          0.562919   0.000000
     19          1.055181   0.000000
     20          1.098726   0.000000
     21          2.083416   0.000000
     22          2.483726   0.000000
     23          4.445618   0.000000
     24          5.062553   0.000000
 
  0.2220429E-16  0.1694915E+00  0.0000000E+00  0.5745475E-03
      1        -19.774627   1.000000
      2        -16.456238   1.000000
      3        -16.135275   1.000000
      4        -13.801558   1.000000
      5        -13.260522   1.000000
      6        -12.038779   1.000000
      7        -10.641452   1.000000
      8         -8.705703   1.000000
      9         -8.518990   1.000000
     10         -6.788720   1.000000
     11         -6.363456   1.000000
     12         -4.963966   1.000000
     13         -4.558387   1.000000
     14         -4.360416   1.000000
     15         -4.061976   1.000000
     16         -2.528968   0.000000
     17          0.003112   0.000000
     18          0.562914   0.000000
     19          1.055181   0.000000
     20          1.098713   0.000000
     21          2.083417   0.000000
     22          2.483726   0.000000
     23          4.445618   0.000000
     24          5.062553   0.000000
 
 -0.1694915E+00  0.1694915E+00  0.0000000E+00  0.5745475E-03
      1        -19.774623   1.000000
      2        -16.456374   1.000000
      3        -16.135146   1.000000
      4        -13.801498   1.000000
      5        -13.260550   1.000000
      6        -12.038825   1.000000
      7        -10.641428   1.000000
      8         -8.705706   1.000000
      9         -8.518988   1.000000
     10         -6.788867   1.000000
     11         -6.363310   1.000000
     12         -4.964027   1.000000
     13         -4.558314   1.000000
     14         -4.360517   1.000000
     15         -4.061876   1.000000
     16         -2.528996   0.000000
     17          0.003095   0.000000
     18          0.563011   0.000000
     19          1.055180   0.000000
     20          1.098664   0.000000
     21          2.083407   0.000000
     22          2.483726   0.000000
     23          4.445618   0.000000
     24          5.062551   0.000000
 
  0.1864407E+00  0.4118714E-16  0.0000000E+00  0.5745475E-03
      1        -19.752369   1.000000
      2        -16.535412   1.000000
      3        -16.160298   1.000000
      4        -13.831142   1.000000
      5        -13.188624   1.000000
      6        -11.936949   1.000000
      7        -10.528071   1.000000