Automatically generated mesh
    1741
Reciprocal lattice
    0.00000000000000    0.00000000000000    0.00000000000000             1
    0.01694915254237    0.00000000000000    0.00000000000000             2
    0.00000000000000    0.01694915254237    0.00000000000000             2
   -0.01694915254237    0.01694915254237    0.00000000000000             2
    0.03389830508475    0.00000000000000    0.00000000000000             2
    0.00000000000000    0.03389830508475    0.00000000000000             2
   -0.03389830508475    0.03389830508475    0.00000000000000             2
    0.05084745762712    0.00000000000000    0.00000000000000             2
    0.00000000000000    0.05084745762712    0.00000000000000             2
   -0.05084745762712    0.05084745762712    0.00000000000000             2
    0.06779661016949    0.00000000000000    0.00000000000000             2
    0.00000000000000    0.06779661016949    0.00000000000000             2
   -0.06779661016949    0.06779661016949    0.00000000000000             2
    0.08474576271186    0.00000000000000    0.00000000000000             2
   -0.00000000000000    0.08474576271186    0.00000000000000             2
   -0.08474576271186    0.08474576271186    0.00000000000000             2
    0.10169491525424    0.00000000000000    0.00000000000000             2
    0.00000000000000    0.10169491525424    0.00000000000000             2
   -0.10169491525424    0.10169491525424    0.00000000000000             2
    0.11864406779661    0.00000000000000    0.00000000000000             2
    0.00000000000000    0.11864406779661    0.00000000000000             2
   -0.11864406779661    0.11864406779661    0.00000000000000             2
    0.13559322033898    0.00000000000000    0.00000000000000             2
    0.00000000000000    0.13559322033898    0.00000000000000             2
   -0.13559322033898    0.13559322033898    0.00000000000000             2
    0.15254237288136    0.00000000000000    0.00000000000000             2
    0.00000000000000    0.15254237288136    0.00000000000000             2
   -0.15254237288136    0.15254237288136    0.00000000000000             2
    0.16949152542373    0.00000000000000    0.00000000000000             2
    0.00000000000000    0.16949152542373    0.00000000000000             2
   -0.16949152542373    0.16949152542373    0.00000000000000             2
    0.18644067796610    0.00000000000000    0.00000000000000             2
   -0.00000000000000    0.18644067796610    0.00000000000000             2
   -0.18644067796610    0.18644067796610    0.00000000000000             2
    0.20338983050848    0.00000000000000    0.00000000000000             2
    0.00000000000000    0.20338983050848    0.00000000000000             2
   -0.20338983050848    0.20338983050848    0.00000000000000             2
    0.22033898305084    0.00000000000000    0.00000000000000             2
    0.00000000000000    0.22033898305084    0.00000000000000             2
   -0.22033898305084    0.22033898305084    0.00000000000000             2
    0.23728813559322    0.00000000000000    0.00000000000000             2
    0.00000000000000    0.23728813559322    0.00000000000000             2
   -0.23728813559322    0.23728813559322    0.00000000000000             2
    0.25423728813559    0.00000000000000    0.00000000000000             2
    0.00000000000000    0.25423728813559    0.00000000000000             2
   -0.25423728813559    0.25423728813559    0.00000000000000             2
    0.27118644067797    0.00000000000000    0.00000000000000             2
    0.00000000000000    0.27118644067797    0.00000000000000             2
   -0.27118644067797    0.27118644067797    0.00000000000000             2
    0.28813559322034    0.00000000000000    0.00000000000000             2
    0.00000000000000    0.28813559322034    0.00000000000000             2
   -0.28813559322034    0.28813559322034    0.00000000000000             2
    0.30508474576271    0.00000000000000    0.00000000000000             2
    0.00000000000000    0.30508474576271    0.00000000000000             2
   -0.30508474576271    0.30508474576271    0.00000000000000             2
    0.32203389830509    0.00000000000000    0.00000000000000             2
    0.00000000000000    0.32203389830509    0.00000000000000             2
   -0.32203389830509    0.32203389830509    0.00000000000000             2
    0.33898305084746    0.00000000000000    0.00000000000000             2
    0.00000000000000    0.33898305084746    0.00000000000000             2
   -0.33898305084746    0.33898305084746    0.00000000000000             2
    0.35593220338983    0.00000000000000    0.00000000000000             2
    0.00000000000000    0.35593220338983    0.00000000000000             2
   -0.35593220338983    0.35593220338983    0.00000000000000             2
    0.37288135593220    0.00000000000000    0.00000000000000             2
    0.00000000000000    0.37288135593220    0.00000000000000             2
   -0.37288135593220    0.37288135593220    0.00000000000000             2
    0.38983050847457    0.00000000000000    0.00000000000000             2
    0.00000000000000    0.38983050847457    0.00000000000000             2
   -0.38983050847457    0.38983050847457    0.00000000000000             2
    0.40677966101695    0.00000000000000    0.00000000000000             2
    0.00000000000000    0.40677966101695    0.00000000000000             2
   -0.40677966101695    0.40677966101695    0.00000000000000             2
    0.42372881355932    0.00000000000000    0.00000000000000             2
    0.00000000000000    0.42372881355932    0.00000000000000             2
   -0.42372881355932    0.42372881355932    0.00000000000000             2
    0.44067796610170    0.00000000000000    0.00000000000000             2
    0.00000000000000    0.44067796610170    0.00000000000000             2
   -0.44067796610170    0.44067796610170    0.00000000000000             2
    0.45762711864407    0.00000000000000    0.00000000000000             2
    0.00000000000000    0.45762711864407    0.00000000000000             2
   -0.45762711864407    0.45762711864407    0.00000000000000             2
    0.47457627118644    0.00000000000000    0.00000000000000             2
    0.00000000000000    0.47457627118644    0.00000000000000             2
   -0.47457627118644    0.47457627118644    0.00000000000000             2
    0.49152542372882    0.00000000000000    0.00000000000000             2
    0.00000000000000    0.49152542372882    0.00000000000000             2
   -0.49152542372882    0.49152542372882    0.00000000000000             2
    0.01694915254237    0.01694915254237    0.00000000000000             2
   -0.01694915254237    0.03389830508475    0.00000000000000             2
   -0.03389830508475    0.01694915254237    0.00000000000000             2
    0.03389830508475    0.01694915254237    0.00000000000000             2
   -0.01694915254237    0.05084745762712    0.00000000000000             2
   -0.05084745762712    0.03389830508475    0.00000000000000             2
   -0.03389830508475    0.05084745762712    0.00000000000000             2
    0.01694915254237    0.03389830508475    0.00000000000000             2
    0.05084745762712   -0.01694915254237    0.00000000000000             2
    0.05084745762712    0.01694915254237    0.00000000000000             2
   -0.01694915254237    0.06779661016949    0.00000000000000             2
   -0.06779661016949    0.05084745762712    0.00000000000000             2
   -0.05084745762712    0.06779661016949    0.00000000000000             2
    0.01694915254237    0.05084745762712    0.00000000000000             2
    0.06779661016949   -0.01694915254237    0.00000000000000             2
    0.06779661016949    0.01694915254237    0.00000000000000             2
   -0.01694915254237    0.08474576271187    0.00000000000000             2
   -0.08474576271187    0.06779661016949    0.00000000000000             2
   -0.06779661016949    0.08474576271187    0.00000000000000             2
    0.01694915254237    0.06779661016949    0.00000000000000             2
    0.08474576271187   -0.01694915254237    0.00000000000000             2
    0.08474576271186    0.01694915254237    0.00000000000000             2
   -0.01694915254237    0.10169491525424    0.00000000000000             2
   -0.10169491525424    0.08474576271186    0.00000000000000             2
   -0.08474576271186    0.10169491525424    0.00000000000000             2
    0.01694915254237    0.08474576271186    0.00000000000000             2
    0.10169491525424   -0.01694915254237    0.00000000000000             2
    0.10169491525424    0.01694915254237    0.00000000000000             2
   -0.01694915254237    0.11864406779661    0.00000000000000             2
   -0.11864406779661    0.10169491525424    0.00000000000000             2
   -0.10169491525424    0.11864406779661    0.00000000000000             2
    0.01694915254237    0.10169491525424    0.00000000000000             2
    0.11864406779661   -0.01694915254237    0.00000000000000             2
    0.11864406779661    0.01694915254237    0.00000000000000             2
   -0.01694915254237    0.13559322033898    0.00000000000000             2
   -0.13559322033898    0.11864406779661    0.00000000000000             2
   -0.11864406779661    0.13559322033898    0.00000000000000             2
    0.01694915254237    0.11864406779661    0.00000000000000             2
    0.13559322033898   -0.01694915254237    0.00000000000000             2
    0.13559322033898    0.01694915254237    0.00000000000000             2
   -0.01694915254237    0.15254237288136    0.00000000000000             2
   -0.15254237288136    0.13559322033898    0.00000000000000             2
   -0.13559322033898    0.15254237288136    0.00000000000000             2
    0.01694915254237    0.13559322033898    0.00000000000000             2
    0.15254237288136   -0.01694915254237    0.00000000000000             2
    0.15254237288136    0.01694915254237    0.00000000000000             2
   -0.01694915254237    0.16949152542373    0.00000000000000             2
   -0.16949152542373    0.15254237288136    0.00000000000000             2
   -0.15254237288136    0.16949152542373    0.00000000000000             2
    0.01694915254237    0.15254237288136    0.00000000000000             2
    0.16949152542373   -0.01694915254237    0.00000000000000             2
    0.16949152542373    0.01694915254237    0.00000000000000             2
   -0.01694915254237    0.18644067796610    0.00000000000000             2
   -0.18644067796610    0.16949152542373    0.00000000000000             2
   -0.16949152542373    0.18644067796610    0.00000000000000             2
    0.01694915254237    0.16949152542373    0.00000000000000             2
    0.18644067796610   -0.01694915254237    0.00000000000000             2
    0.18644067796610    0.01694915254237    0.00000000000000             2
   -0.01694915254237    0.20338983050848    0.00000000000000             2
   -0.20338983050848    0.18644067796610    0.00000000000000             2
   -0.18644067796610    0.20338983050848    0.00000000000000             2
    0.01694915254237    0.18644067796610    0.00000000000000             2
    0.20338983050848   -0.01694915254237    0.00000000000000             2
    0.20338983050848    0.01694915254237    0.00000000000000             2
   -0.01694915254237    0.22033898305085    0.00000000000000             2
   -0.22033898305085    0.20338983050848    0.00000000000000             2
   -0.20338983050848    0.22033898305085    0.00000000000000             2
    0.01694915254237    0.20338983050848    0.00000000000000             2
    0.22033898305085   -0.01694915254237    0.00000000000000             2
    0.22033898305084    0.01694915254237    0.00000000000000             2
   -0.01694915254237    0.23728813559322    0.00000000000000             2
   -0.23728813559322    0.22033898305084    0.00000000000000             2
   -0.22033898305084    0.23728813559322    0.00000000000000             2
    0.01694915254237    0.22033898305084    0.00000000000000             2
    0.23728813559322   -0.01694915254237    0.00000000000000             2
    0.23728813559322    0.01694915254237    0.00000000000000             2
   -0.01694915254237    0.25423728813559    0.00000000000000             2
   -0.25423728813559    0.23728813559322    0.00000000000000             2
   -0.23728813559322    0.25423728813559    0.00000000000000             2
    0.01694915254237    0.23728813559322    0.00000000000000             2
    0.25423728813559   -0.01694915254237    0.00000000000000             2
    0.25423728813559    0.01694915254237    0.00000000000000             2
   -0.01694915254237    0.27118644067797    0.00000000000000             2
   -0.27118644067797    0.25423728813559    0.00000000000000             2
   -0.25423728813559    0.27118644067797    0.00000000000000             2
    0.01694915254237    0.25423728813559    0.00000000000000             2
    0.27118644067797   -0.01694915254237    0.00000000000000             2
    0.27118644067797    0.01694915254237    0.00000000000000             2
   -0.01694915254237    0.28813559322034    0.00000000000000             2
   -0.28813559322034    0.27118644067797    0.00000000000000             2
   -0.27118644067797    0.28813559322034    0.00000000000000             2
    0.01694915254237    0.27118644067797    0.00000000000000             2
    0.28813559322034   -0.01694915254237    0.00000000000000             2
    0.28813559322034    0.01694915254237    0.00000000000000             2
   -0.01694915254237    0.30508474576271    0.00000000000000             2
   -0.30508474576271    0.28813559322034    0.00000000000000             2
   -0.28813559322034    0.30508474576271    0.00000000000000             2
    0.01694915254237    0.28813559322034    0.00000000000000             2
    0.30508474576271   -0.01694915254237    0.00000000000000             2
    0.30508474576271    0.01694915254237    0.00000000000000             2
   -0.01694915254237    0.32203389830509    0.00000000000000             2
   -0.32203389830509    0.30508474576271    0.00000000000000             2
   -0.30508474576271    0.32203389830509    0.00000000000000             2
    0.01694915254237    0.30508474576271    0.00000000000000             2
    0.32203389830509   -0.01694915254237    0.00000000000000             2
    0.32203389830509    0.01694915254237    0.00000000000000             2
   -0.01694915254237    0.33898305084746    0.00000000000000             2
   -0.33898305084746    0.32203389830509    0.00000000000000             2
   -0.32203389830509    0.33898305084746    0.00000000000000             2
    0.01694915254237    0.32203389830509    0.00000000000000             2
    0.33898305084746   -0.01694915254237    0.00000000000000             2
    0.33898305084746    0.01694915254237    0.00000000000000             2
   -0.01694915254237    0.35593220338983    0.00000000000000             2
   -0.35593220338983    0.33898305084746    0.00000000000000             2
   -0.33898305084746    0.35593220338983    0.00000000000000             2
    0.01694915254237    0.33898305084746    0.00000000000000             2
    0.35593220338983   -0.01694915254237    0.00000000000000             2
    0.35593220338983    0.01694915254237    0.00000000000000             2
   -0.01694915254237    0.37288135593221    0.00000000000000             2
   -0.37288135593221    0.35593220338983    0.00000000000000             2
   -0.35593220338983    0.37288135593221    0.00000000000000             2
    0.01694915254237    0.35593220338983    0.00000000000000             2
    0.37288135593221   -0.01694915254237    0.00000000000000             2
    0.37288135593220    0.01694915254237    0.00000000000000             2
   -0.01694915254237    0.38983050847457    0.00000000000000             2
   -0.38983050847457    0.37288135593220    0.00000000000000             2
   -0.37288135593220    0.38983050847457    0.00000000000000             2
    0.01694915254237    0.37288135593220    0.00000000000000             2
    0.38983050847457   -0.01694915254237    0.00000000000000             2
    0.38983050847457    0.01694915254237    0.00000000000000             2
   -0.01694915254237    0.40677966101695    0.00000000000000             2
   -0.40677966101695    0.38983050847457    0.00000000000000             2
   -0.38983050847457    0.40677966101695    0.00000000000000             2
    0.01694915254237    0.38983050847457    0.00000000000000             2
    0.40677966101695   -0.01694915254237    0.00000000000000             2
    0.40677966101695    0.01694915254237    0.00000000000000             2
   -0.01694915254237    0.42372881355932    0.00000000000000             2
   -0.42372881355932    0.40677966101695    0.00000000000000             2
   -0.40677966101695    0.42372881355932    0.00000000000000             2
    0.01694915254237    0.40677966101695    0.00000000000000             2
    0.42372881355932   -0.01694915254237    0.00000000000000             2
    0.42372881355932    0.01694915254237    0.00000000000000             2
   -0.01694915254237    0.44067796610170    0.00000000000000             2
   -0.44067796610170    0.42372881355932    0.00000000000000             2
   -0.42372881355932    0.44067796610170    0.00000000000000             2
    0.01694915254237    0.42372881355932    0.00000000000000             2
    0.44067796610170   -0.01694915254237    0.00000000000000             2
    0.44067796610170    0.01694915254237    0.00000000000000             2
   -0.01694915254237    0.45762711864407    0.00000000000000             2
   -0.45762711864407    0.44067796610170    0.00000000000000             2
   -0.44067796610170    0.45762711864407    0.00000000000000             2
    0.01694915254237    0.44067796610170    0.00000000000000             2
    0.45762711864407   -0.01694915254237    0.00000000000000             2
    0.45762711864407    0.01694915254237    0.00000000000000             2
   -0.01694915254237    0.47457627118644    0.00000000000000             2
   -0.47457627118644    0.45762711864407    0.00000000000000             2
   -0.45762711864407    0.47457627118644    0.00000000000000             2
    0.01694915254237    0.45762711864407    0.00000000000000             2
    0.47457627118644   -0.01694915254237    0.00000000000000             2
    0.47457627118644    0.01694915254237    0.00000000000000             2
   -0.01694915254237    0.49152542372882    0.00000000000000             2
   -0.49152542372882    0.47457627118644    0.00000000000000             2
   -0.47457627118644    0.49152542372882    0.00000000000000             2
    0.01694915254237    0.47457627118644    0.00000000000000             2
    0.49152542372882   -0.01694915254237    0.00000000000000             2
    0.49152542372882    0.01694915254237    0.00000000000000             2
   -0.01694915254237   -0.49152542372881    0.00000000000000             2
    0.49152542372881    0.49152542372882    0.00000000000000             2
    0.03389830508475    0.03389830508475    0.00000000000000             2
   -0.03389830508475    0.06779661016949    0.00000000000000             2
   -0.06779661016949    0.03389830508475    0.00000000000000             2
    0.05084745762712    0.03389830508475    0.00000000000000             2
   -0.03389830508475    0.08474576271187    0.00000000000000             2
   -0.08474576271187    0.05084745762712    0.00000000000000             2
   -0.05084745762712    0.08474576271187    0.00000000000000             2
    0.03389830508475    0.05084745762712    0.00000000000000             2
    0.08474576271187   -0.03389830508475    0.00000000000000             2
    0.06779661016949    0.03389830508475    0.00000000000000             2
   -0.03389830508475    0.10169491525424    0.00000000000000             2
   -0.10169491525424    0.06779661016949    0.00000000000000             2
   -0.06779661016949    0.10169491525424    0.00000000000000             2
    0.03389830508475    0.06779661016949    0.00000000000000             2
    0.10169491525424   -0.03389830508475    0.00000000000000             2
    0.08474576271186    0.03389830508475    0.00000000000000             2
   -0.03389830508475    0.11864406779661    0.00000000000000             2
   -0.11864406779661    0.08474576271186    0.00000000000000             2
   -0.08474576271186    0.11864406779661    0.00000000000000             2
    0.03389830508475    0.08474576271186    0.00000000000000             2
    0.11864406779661   -0.03389830508475    0.00000000000000             2
    0.10169491525424    0.03389830508475    0.00000000000000             2
   -0.03389830508475    0.13559322033898    0.00000000000000             2
   -0.13559322033898    0.10169491525424    0.00000000000000             2
   -0.10169491525424    0.13559322033898    0.00000000000000             2
    0.03389830508475    0.10169491525424    0.00000000000000             2
    0.13559322033898   -0.03389830508475    0.00000000000000             2
    0.11864406779661    0.03389830508475    0.00000000000000             2
   -0.03389830508475    0.15254237288136    0.00000000000000             2
   -0.15254237288136    0.11864406779661    0.00000000000000             2
   -0.11864406779661    0.15254237288136    0.00000000000000             2
    0.03389830508475    0.11864406779661    0.00000000000000             2
    0.15254237288136   -0.03389830508475    0.00000000000000             2
    0.13559322033898    0.03389830508475    0.00000000000000             2
   -0.03389830508475    0.16949152542373    0.00000000000000             2
   -0.16949152542373    0.13559322033898    0.00000000000000             2
   -0.13559322033898    0.16949152542373    0.00000000000000             2
    0.03389830508475    0.13559322033898    0.00000000000000             2
    0.16949152542373   -0.03389830508475    0.00000000000000             2
    0.15254237288136    0.03389830508475    0.00000000000000             2
   -0.03389830508475    0.18644067796610    0.00000000000000             2
   -0.18644067796610    0.15254237288136    0.00000000000000             2
   -0.15254237288136    0.18644067796610    0.00000000000000             2
    0.03389830508475    0.15254237288136    0.00000000000000             2
    0.18644067796610   -0.03389830508475    0.00000000000000             2
    0.16949152542373    0.03389830508475    0.00000000000000             2
   -0.03389830508475    0.20338983050848    0.00000000000000             2
   -0.20338983050848    0.16949152542373    0.00000000000000             2
   -0.16949152542373    0.20338983050848    0.00000000000000             2
    0.03389830508475    0.16949152542373    0.00000000000000             2
    0.20338983050848   -0.03389830508475    0.00000000000000             2
    0.18644067796610    0.03389830508475    0.00000000000000             2
   -0.03389830508475    0.22033898305085    0.00000000000000             2
   -0.22033898305085    0.18644067796610    0.00000000000000             2
   -0.18644067796610    0.22033898305085    0.00000000000000             2
    0.03389830508475    0.18644067796610    0.00000000000000             2
    0.22033898305085   -0.03389830508475    0.00000000000000             2
    0.20338983050848    0.03389830508475    0.00000000000000             2
   -0.03389830508475    0.23728813559323    0.00000000000000             2
   -0.23728813559322    0.20338983050848    0.00000000000000             2
   -0.20338983050848    0.23728813559323    0.00000000000000             2
    0.03389830508475    0.20338983050848    0.00000000000000             2
    0.23728813559323   -0.03389830508475    0.00000000000000             2
    0.22033898305084    0.03389830508475    0.00000000000000             2
   -0.03389830508475    0.25423728813559    0.00000000000000             2
   -0.25423728813559    0.22033898305084    0.00000000000000             2
   -0.22033898305084    0.25423728813559    0.00000000000000             2
    0.03389830508475    0.22033898305084    0.00000000000000             2
    0.25423728813559   -0.03389830508475    0.00000000000000             2
    0.23728813559322    0.03389830508475    0.00000000000000             2
   -0.03389830508475    0.27118644067797    0.00000000000000             2
   -0.27118644067797    0.23728813559322    0.00000000000000             2
   -0.23728813559322    0.27118644067797    0.00000000000000             2
    0.03389830508475    0.23728813559322    0.00000000000000             2
    0.27118644067797   -0.03389830508475    0.00000000000000             2
    0.25423728813559    0.03389830508475    0.00000000000000             2
   -0.03389830508475    0.28813559322034    0.00000000000000             2
   -0.28813559322034    0.25423728813559    0.00000000000000             2
   -0.25423728813559    0.28813559322034    0.00000000000000             2
    0.03389830508475    0.25423728813559    0.00000000000000             2
    0.28813559322034   -0.03389830508475    0.00000000000000             2
    0.27118644067797    0.03389830508475    0.00000000000000             2
   -0.03389830508475    0.30508474576271    0.00000000000000             2
   -0.30508474576271    0.27118644067797    0.00000000000000             2
   -0.27118644067797    0.30508474576271    0.00000000000000             2
    0.03389830508475    0.27118644067797    0.00000000000000             2
    0.30508474576271   -0.03389830508475    0.00000000000000             2
    0.28813559322034    0.03389830508475    0.00000000000000             2
   -0.03389830508475    0.32203389830509    0.00000000000000             2
   -0.32203389830509    0.28813559322034    0.00000000000000             2
   -0.28813559322034    0.32203389830509    0.00000000000000             2
    0.03389830508475    0.28813559322034    0.00000000000000             2
    0.32203389830509   -0.03389830508475    0.00000000000000             2
    0.30508474576271    0.03389830508475    0.00000000000000             2
   -0.03389830508475    0.33898305084746    0.00000000000000             2
   -0.33898305084746    0.30508474576271    0.00000000000000             2
   -0.30508474576271    0.33898305084746    0.00000000000000             2
    0.03389830508475    0.30508474576271    0.00000000000000             2
    0.33898305084746   -0.03389830508475    0.00000000000000             2
    0.32203389830509    0.03389830508475    0.00000000000000             2
   -0.03389830508475    0.35593220338983    0.00000000000000             2
   -0.35593220338983    0.32203389830509    0.00000000000000             2
   -0.32203389830509    0.35593220338983    0.00000000000000             2
    0.03389830508475    0.32203389830509    0.00000000000000             2
    0.35593220338983   -0.03389830508475    0.00000000000000             2
    0.33898305084746    0.03389830508475    0.00000000000000             2
   -0.03389830508475    0.37288135593221    0.00000000000000             2
   -0.37288135593221    0.33898305084746    0.00000000000000             2
   -0.33898305084746    0.37288135593221    0.00000000000000             2
    0.03389830508475    0.33898305084746    0.00000000000000             2
    0.37288135593221   -0.03389830508475    0.00000000000000             2
    0.35593220338983    0.03389830508475    0.00000000000000             2
   -0.03389830508475    0.38983050847458    0.00000000000000             2
   -0.38983050847458    0.35593220338983    0.00000000000000             2
   -0.35593220338983    0.38983050847458    0.00000000000000             2
    0.03389830508475    0.35593220338983    0.00000000000000             2
    0.38983050847458   -0.03389830508475    0.00000000000000             2
    0.37288135593220    0.03389830508475    0.00000000000000             2
   -0.03389830508475    0.40677966101695    0.00000000000000             2
   -0.40677966101695    0.37288135593220    0.00000000000000             2
   -0.37288135593220    0.40677966101695    0.00000000000000             2
    0.03389830508475    0.37288135593220    0.00000000000000             2
    0.40677966101695   -0.03389830508475    0.00000000000000             2
    0.38983050847457    0.03389830508475    0.00000000000000             2
   -0.03389830508475    0.42372881355932    0.00000000000000             2
   -0.42372881355932    0.38983050847457    0.00000000000000             2
   -0.38983050847457    0.42372881355932    0.00000000000000             2
    0.03389830508475    0.38983050847457    0.00000000000000             2
    0.42372881355932   -0.03389830508475    0.00000000000000             2
    0.40677966101695    0.03389830508475    0.00000000000000             2
   -0.03389830508475    0.44067796610170    0.00000000000000             2
   -0.44067796610170    0.40677966101695    0.00000000000000             2
   -0.40677966101695    0.44067796610170    0.00000000000000             2
    0.03389830508475    0.40677966101695    0.00000000000000             2
    0.44067796610170   -0.03389830508475    0.00000000000000             2
    0.42372881355932    0.03389830508475    0.00000000000000             2
   -0.03389830508475    0.45762711864407    0.00000000000000             2
   -0.45762711864407    0.42372881355932    0.00000000000000             2
   -0.42372881355932    0.45762711864407    0.00000000000000             2
    0.03389830508475    0.42372881355932    0.00000000000000             2
    0.45762711864407   -0.03389830508475    0.00000000000000             2
    0.44067796610170    0.03389830508475    0.00000000000000             2
   -0.03389830508475    0.47457627118644    0.00000000000000             2