<?xml version="1.0" encoding="ISO-8859-1"?>
<modeling>
 <generator>
  <i name="program" type="string">vasp </i>
  <i name="version" type="string">6.3.2  </i>
  <i name="subversion" type="string">27Jun22 (build Dec 22 2022 13:13:19) complex                          parallel </i>
  <i name="platform" type="string">LinuxIFC </i>
  <i name="date" type="string">2023 08 23 </i>
  <i name="time" type="string">00:11:17 </i>
 </generator>
 <incar>
  <i type="string" name="SYSTEM">Lattice</i>
  <i type="int" name="ISTART">     0</i>
  <i type="string" name="PREC">Accurate</i>
  <i type="string" name="ALGO">Normal</i>
  <i type="int" name="ISPIN">     2</i>
  <i type="int" name="ICHARG">     2</i>
  <i type="int" name="NELM">    64</i>
  <i type="int" name="IBRION">     2</i>
  <i name="EDIFF">      0.00000100</i>
  <i name="EDIFFG">     -0.00100000</i>
  <i type="int" name="NSW">   128</i>
  <i type="int" name="ISIF">     2</i>
  <i name="ENCUT">    450.00000000</i>
  <i name="POTIM">      0.50000000</i>
  <i type="int" name="ISMEAR">     0</i>
  <i name="SIGMA">      0.10000000</i>
  <i type="logical" name="LWAVE"> F  </i>
  <i type="logical" name="LCHARG"> F  </i>
  <i type="string" name="GGA">PE</i>
  <i type="int" name="IVDW">    12</i>
 </incar>
 <primitive_cell>
  <structure name="primitive_cell" >
   <crystal>
    <varray name="basis" >
     <v>       4.37083021       2.52350000       0.00000000 </v>
     <v>      -4.37083021       2.52350000       0.00000000 </v>
     <v>       0.00000000       0.00000000      15.00000000 </v>
    </varray>
    <i name="volume">    330.89370127 </i>
    <varray name="rec_basis" >
     <v>       0.11439474       0.19813751       0.00000000 </v>
     <v>      -0.11439474       0.19813751       0.00000000 </v>
     <v>       0.00000000       0.00000000       0.06666667 </v>
    </varray>
   </crystal>
   <varray name="positions" >
    <v>       0.33833034       0.66916432       0.10000000 </v>
    <v>       0.67165522       0.33584146       0.10000000 </v>
    <v>       0.16373946       0.31999962       0.10000000 </v>
    <v>       0.32250218       0.16126397       0.10000000 </v>
    <v>       0.16376430       0.84376384       0.10000000 </v>
    <v>       0.84623863       0.16123684       0.10000000 </v>
    <v>       0.68749850       0.84373000       0.10000000 </v>
    <v>       0.84626736       0.68499594       0.10000000 </v>
    <v>       0.16666600       0.33333300       0.32880000 </v>
    <v>       0.33333300       0.16666600       0.32880000 </v>
    <v>       0.16666600       0.83333300       0.32880000 </v>
    <v>       0.33333300       0.66666600       0.32880000 </v>
    <v>       0.66666600       0.33333300       0.32880000 </v>
    <v>       0.83333300       0.16666600       0.32880000 </v>
    <v>       0.66666600       0.83333300       0.32880000 </v>
    <v>       0.83333300       0.66666600       0.32880000 </v>
   </varray>
  </structure>
  <varray name="primitive_index" >
   <v type="int" >        1 </v>
   <v type="int" >        2 </v>
   <v type="int" >        3 </v>
   <v type="int" >        4 </v>
   <v type="int" >        5 </v>
   <v type="int" >        6 </v>
   <v type="int" >        7 </v>
   <v type="int" >        8 </v>
   <v type="int" >        9 </v>
   <v type="int" >       10 </v>
   <v type="int" >       11 </v>
   <v type="int" >       12 </v>
   <v type="int" >       13 </v>
   <v type="int" >       14 </v>
   <v type="int" >       15 </v>
   <v type="int" >       16 </v>
  </varray>
 </primitive_cell>
 <kpoints>
  <generation param="Gamma">
   <v type="int" name="divisions">      12       12        1 </v>
   <v name="usershift">      0.00000000       0.00000000       0.00000000 </v>
   <v name="genvec1">      0.08333333       0.00000000       0.00000000 </v>
   <v name="genvec2">      0.00000000       0.08333333       0.00000000 </v>
   <v name="genvec3">      0.00000000       0.00000000       1.00000000 </v>
   <v name="shift">      0.00000000       0.00000000       0.00000000 </v>
  </generation>
  <varray name="kpointlist" >
   <v>       0.00000000       0.00000000       0.00000000 </v>
   <v>       0.08333333       0.00000000       0.00000000 </v>
   <v>       0.00000000       0.08333333       0.00000000 </v>
   <v>      -0.08333333       0.08333333       0.00000000 </v>
   <v>       0.16666667       0.00000000       0.00000000 </v>
   <v>       0.00000000       0.16666667       0.00000000 </v>
   <v>      -0.16666667       0.16666667       0.00000000 </v>
   <v>       0.25000000       0.00000000       0.00000000 </v>
   <v>       0.00000000       0.25000000       0.00000000 </v>
   <v>      -0.25000000       0.25000000       0.00000000 </v>
   <v>       0.33333333       0.00000000       0.00000000 </v>
   <v>       0.00000000       0.33333333       0.00000000 </v>
   <v>      -0.33333333       0.33333333       0.00000000 </v>
   <v>       0.41666667      -0.00000000       0.00000000 </v>
   <v>       0.00000000       0.41666667       0.00000000 </v>
   <v>      -0.41666667       0.41666667       0.00000000 </v>
   <v>       0.50000000       0.00000000       0.00000000 </v>
   <v>       0.00000000       0.50000000       0.00000000 </v>
   <v>       0.50000000       0.50000000       0.00000000 </v>
   <v>       0.08333333       0.08333333       0.00000000 </v>
   <v>      -0.08333333       0.16666667       0.00000000 </v>
   <v>      -0.16666667       0.08333333       0.00000000 </v>
   <v>       0.16666667       0.08333333       0.00000000 </v>
   <v>      -0.08333333       0.25000000       0.00000000 </v>
   <v>      -0.25000000       0.16666667       0.00000000 </v>
   <v>      -0.16666667       0.25000000       0.00000000 </v>
   <v>       0.08333333       0.16666667       0.00000000 </v>
   <v>       0.25000000      -0.08333333       0.00000000 </v>
   <v>       0.25000000       0.08333333       0.00000000 </v>
   <v>      -0.08333333       0.33333333       0.00000000 </v>
   <v>      -0.33333333       0.25000000       0.00000000 </v>
   <v>      -0.25000000       0.33333333       0.00000000 </v>
   <v>       0.08333333       0.25000000       0.00000000 </v>
   <v>       0.33333333      -0.08333333       0.00000000 </v>
   <v>       0.33333333       0.08333333       0.00000000 </v>
   <v>      -0.08333333       0.41666667       0.00000000 </v>
   <v>      -0.41666667       0.33333333       0.00000000 </v>
   <v>      -0.33333333       0.41666667       0.00000000 </v>
   <v>       0.08333333       0.33333333       0.00000000 </v>
   <v>       0.41666667      -0.08333333       0.00000000 </v>
   <v>       0.41666667       0.08333333       0.00000000 </v>
   <v>      -0.08333333       0.50000000       0.00000000 </v>
   <v>       0.50000000       0.41666667       0.00000000 </v>
   <v>      -0.41666667       0.50000000       0.00000000 </v>
   <v>       0.08333333       0.41666667       0.00000000 </v>
   <v>       0.50000000      -0.08333333       0.00000000 </v>
   <v>       0.16666667       0.16666667       0.00000000 </v>
   <v>      -0.16666667       0.33333333       0.00000000 </v>
   <v>      -0.33333333       0.16666667       0.00000000 </v>
   <v>       0.25000000       0.16666667       0.00000000 </v>
   <v>      -0.16666667       0.41666667       0.00000000 </v>
   <v>      -0.41666667       0.25000000       0.00000000 </v>
   <v>      -0.25000000       0.41666667       0.00000000 </v>
   <v>       0.16666667       0.25000000       0.00000000 </v>
   <v>       0.41666667      -0.16666667       0.00000000 </v>
   <v>       0.33333333       0.16666667       0.00000000 </v>
   <v>      -0.16666667       0.50000000       0.00000000 </v>
   <v>       0.50000000       0.33333333       0.00000000 </v>
   <v>      -0.33333333       0.50000000       0.00000000 </v>
   <v>       0.16666667       0.33333333       0.00000000 </v>
   <v>       0.50000000      -0.16666667       0.00000000 </v>
   <v>       0.41666667       0.16666667       0.00000000 </v>
   <v>      -0.16666667      -0.41666667       0.00000000 </v>
   <v>       0.41666667       0.41666667       0.00000000 </v>
   <v>       0.25000000       0.25000000       0.00000000 </v>
   <v>      -0.25000000       0.50000000       0.00000000 </v>
   <v>       0.50000000       0.25000000       0.00000000 </v>
   <v>       0.33333333       0.25000000       0.00000000 </v>
   <v>      -0.25000000      -0.41666667       0.00000000 </v>
   <v>       0.41666667       0.33333333       0.00000000 </v>
   <v>      -0.33333333      -0.41666667       0.00000000 </v>
   <v>       0.25000000       0.33333333       0.00000000 </v>
   <v>      -0.41666667      -0.25000000       0.00000000 </v>
   <v>       0.33333333       0.33333333       0.00000000 </v>
  </varray>
  <varray name="weights" >
   <v>       0.00694444 </v>
   <v>       0.01388889 </v>
   <v>       0.01388889 </v>
   <v>       0.01388889 </v>
   <v>       0.01388889 </v>
   <v>       0.01388889 </v>
   <v>       0.01388889 </v>
   <v>       0.01388889 </v>
   <v>       0.01388889 </v>
   <v>       0.01388889 </v>
   <v>       0.01388889 </v>
   <v>       0.01388889 </v>
   <v>       0.01388889 </v>
   <v>       0.01388889 </v>
   <v>       0.01388889 </v>
   <v>       0.01388889 </v>
   <v>       0.00694444 </v>
   <v>       0.00694444 </v>
   <v>       0.00694444 </v>
   <v>       0.01388889 </v>
   <v>       0.01388889 </v>
   <v>       0.01388889 </v>
   <v>       0.01388889 </v>
   <v>       0.01388889 </v>
   <v>       0.01388889 </v>
   <v>       0.01388889 </v>
   <v>       0.01388889 </v>
   <v>       0.01388889 </v>
   <v>       0.01388889 </v>
   <v>       0.01388889 </v>
   <v>       0.01388889 </v>
   <v>       0.01388889 </v>
   <v>       0.01388889 </v>
   <v>       0.01388889 </v>
   <v>       0.01388889 </v>
   <v>       0.01388889 </v>
   <v>       0.01388889 </v>
   <v>       0.01388889 </v>
   <v>       0.01388889 </v>
   <v>       0.01388889 </v>
   <v>       0.01388889 </v>
   <v>       0.01388889 </v>
   <v>       0.01388889 </v>
   <v>       0.01388889 </v>
   <v>       0.01388889 </v>
   <v>       0.01388889 </v>
   <v>       0.01388889 </v>
   <v>       0.01388889 </v>
   <v>       0.01388889 </v>
   <v>       0.01388889 </v>
   <v>       0.01388889 </v>
   <v>       0.01388889 </v>
   <v>       0.01388889 </v>
   <v>       0.01388889 </v>
   <v>       0.01388889 </v>
   <v>       0.01388889 </v>
   <v>       0.01388889 </v>
   <v>       0.01388889 </v>
   <v>       0.01388889 </v>
   <v>       0.01388889 </v>
   <v>       0.01388889 </v>
   <v>       0.01388889 </v>
   <v>       0.01388889 </v>
   <v>       0.01388889 </v>
   <v>       0.01388889 </v>
   <v>       0.01388889 </v>
   <v>       0.01388889 </v>
   <v>       0.01388889 </v>
   <v>       0.01388889 </v>
   <v>       0.01388889 </v>
   <v>       0.01388889 </v>
   <v>       0.01388889 </v>
   <v>       0.01388889 </v>
   <v>       0.01388889 </v>
  </varray>
 </kpoints>
 <parameters>
  <separator name="general" >
   <i type="string" name="SYSTEM">Lattice</i>
   <i type="logical" name="LCOMPAT"> F  </i>
  </separator>
  <separator name="electronic" >
   <i type="string" name="PREC">accura</i>
   <i name="ENMAX">    450.00000000</i>
   <i name="ENAUG">    644.87300000</i>
   <i name="EDIFF">      0.00000100</i>
   <i type="int" name="IALGO">    38</i>
   <i type="int" name="IWAVPR">    11</i>
   <i type="int" name="NBANDS">    48</i>
   <i type="int" name="NBANDSLOW">    -1</i>
   <i type="int" name="NBANDSHIGH">    -1</i>
   <i name="NELECT">     62.00000000</i>
   <i type="int" name="TURBO">     0</i>
   <i type="int" name="IRESTART">     0</i>
   <i type="int" name="NREBOOT">     0</i>
   <i type="int" name="NMIN">     0</i>
   <i name="EREF">      0.00000000</i>
   <separator name="electronic smearing" >
    <i type="int" name="ISMEAR">     0</i>
    <i name="SIGMA">      0.10000000</i>
    <i name="KSPACING">      0.50000000</i>
    <i type="logical" name="KGAMMA"> T  </i>
    <i type="logical" name="KBLOWUP"> T  </i>
   </separator>
   <separator name="electronic projectors" >
    <i type="logical" name="LREAL"> F  </i>
    <v name="ROPT">      0.00000000      0.00000000</v>
    <i type="int" name="LMAXPAW">  -100</i>
    <i type="int" name="LMAXMIX">     2</i>
    <i type="logical" name="NLSPLINE"> F  </i>
   </separator>
   <separator name="electronic startup" >
    <i type="int" name="ISTART">     0</i>
    <i type="int" name="ICHARG">     2</i>
    <i type="int" name="INIWAV">     1</i>
   </separator>
   <separator name="electronic spin" >
    <i type="int" name="ISPIN">     2</i>
    <i type="logical" name="LNONCOLLINEAR"> F  </i>
    <v name="MAGMOM">      1.00000000      1.00000000      1.00000000      1.00000000      1.00000000      1.00000000      1.00000000      1.00000000      1.00000000      1.00000000      1.00000000      1.00000000      1.00000000      1.00000000      1.00000000      1.00000000</v>
    <i name="NUPDOWN">     -1.00000000</i>
    <i type="logical" name="LSORBIT"> F  </i>
    <v name="SAXIS">      0.00000000      0.00000000      1.00000000</v>
    <i type="logical" name="LSPIRAL"> F  </i>
    <v name="QSPIRAL">      0.00000000      0.00000000      0.00000000</v>
    <i type="logical" name="LZEROZ"> F  </i>
   </separator>
   <separator name="electronic exchange-correlation" >
    <i type="logical" name="LASPH"> F  </i>
    <i type="logical" name="LMETAGGA"> F  </i>
   </separator>
   <separator name="electronic convergence" >
    <i type="int" name="NELM">    64</i>
    <i type="int" name="NELMDL">    -5</i>
    <i type="int" name="NELMIN">     2</i>
    <i name="ENINI">    450.00000000</i>
    <separator name="electronic convergence detail" >
     <i type="logical" name="LDIAG"> T  </i>
     <i type="logical" name="LSUBROT"> F  </i>
     <i name="WEIMIN">      0.00100000</i>
     <i name="EBREAK">      0.00000001</i>
     <i name="DEPER">      0.30000000</i>
     <i type="int" name="NRMM">     4</i>
     <i name="TIME">      0.40000000</i>
    </separator>
   </separator>
   <separator name="electronic mixer" >
    <i name="AMIX">      0.40000000</i>
    <i name="BMIX">      1.00000000</i>
    <i name="AMIN">      0.10000000</i>
    <i name="AMIX_MAG">      1.60000000</i>
    <i name="BMIX_MAG">      1.00000000</i>
    <separator name="electronic mixer details" >
     <i type="int" name="IMIX">     4</i>
     <i type="logical" name="MIXFIRST"> F  </i>
     <i type="int" name="MAXMIX">   -45</i>
     <i name="WC">    100.00000000</i>
     <i type="int" name="INIMIX">     1</i>
     <i type="int" name="MIXPRE">     1</i>
     <i type="int" name="MREMOVE">     5</i>
    </separator>
   </separator>
   <separator name="electronic dipolcorrection" >
    <i type="logical" name="LDIPOL"> F  </i>
    <i type="logical" name="LMONO"> F  </i>
    <i type="int" name="IDIPOL">     0</i>
    <i name="EPSILON">      1.00000000</i>
    <v name="DIPOL">   -100.00000000   -100.00000000   -100.00000000</v>
    <i name="EFIELD">      0.00000000</i>
   </separator>
  </separator>
  <separator name="grids" >
   <i type="int" name="NGX">    36</i>
   <i type="int" name="NGY">    36</i>
   <i type="int" name="NGZ">   108</i>
   <i type="int" name="NGXF">    72</i>
   <i type="int" name="NGYF">    72</i>
   <i type="int" name="NGZF">   216</i>
   <i type="logical" name="ADDGRID"> F  </i>
  </separator>
  <separator name="ionic" >
   <i type="int" name="NSW">   128</i>
   <i type="int" name="IBRION">     2</i>
   <i type="int" name="MDALGO">     0</i>
   <i type="int" name="ISIF">     2</i>
   <i name="PSTRESS">      0.00000000</i>
   <i name="EDIFFG">     -0.00100000</i>
   <i type="int" name="NFREE">     1</i>
   <i name="POTIM">      0.50000000</i>
   <i name="SMASS">     -3.00000000</i>
   <i name="SCALEE">      1.00000000</i>
  </separator>
  <separator name="ionic md" >
   <i name="TEBEG">      0.00010000</i>
   <i name="TEEND">      0.00010000</i>
   <i type="int" name="NBLOCK">     1</i>
   <i type="int" name="KBLOCK">   128</i>
   <i type="int" name="NPACO">   256</i>
   <i name="APACO">     10.00000000</i>
  </separator>
  <separator name="symmetry" >
   <i type="int" name="ISYM">     2</i>
   <i name="SYMPREC">      0.00001000</i>
  </separator>
  <separator name="dos" >
   <i type="int" name="LORBIT">     0</i>
   <v name="RWIGS">     -1.00000000     -1.00000000</v>
   <i type="int" name="NEDOS">   301</i>
   <i name="EMIN">     10.00000000</i>
   <i name="EMAX">    -10.00000000</i>
   <i name="EFERMI">      0.00000000</i>
  </separator>
  <separator name="writing" >
   <i type="int" name="NWRITE">     2</i>
   <i type="logical" name="LWAVE"> F  </i>
   <i type="logical" name="LDOWNSAMPLE"> F  </i>
   <i type="logical" name="LCHARG"> F  </i>
   <i type="logical" name="LPARD"> F  </i>
   <i type="logical" name="LVTOT"> F  </i>
   <i type="logical" name="LVHAR"> F  </i>
   <i type="logical" name="LELF"> F  </i>
   <i type="logical" name="LOPTICS"> F  </i>
   <v name="STM">      0.00000000      0.00000000      0.00000000      0.00000000      0.00000000      0.00000000      0.00000000</v>
  </separator>
  <separator name="performance" >
   <i type="int" name="NPAR">    48</i>
   <i type="int" name="NSIM">     4</i>
   <i type="int" name="NBLK">    -1</i>
   <i type="logical" name="LPLANE"> T  </i>
   <i type="logical" name="LSCALAPACK"> T  </i>
   <i type="logical" name="LSCAAWARE"> F  </i>
   <i type="logical" name="LSCALU"> F  </i>
   <i type="logical" name="LASYNC"> F  </i>
   <i type="logical" name="LORBITALREAL"> F  </i>
  </separator>
  <separator name="miscellaneous" >
   <i type="int" name="IDIOT">     3</i>
   <i type="int" name="PHON_NSTRUCT">    -1</i>
   <i type="logical" name="LMUSIC"> F  </i>
   <v name="POMASS">     10.81100000     12.01100000</v>
   <v name="DARWINR">      0.00000000      0.00000000</v>
   <v name="DARWINV">      1.00000000      1.00000000</v>
   <i type="logical" name="LCORR"> T  </i>
  </separator>
  <i type="logical" name="GGA_COMPAT"> T  </i>
  <i type="logical" name="LBERRY"> F  </i>
  <i type="int" name="ICORELEVEL">     0</i>
  <i type="logical" name="LDAU"> F  </i>
  <i type="int" name="I_CONSTRAINED_M">     0</i>
  <separator name="electronic exchange-correlation" >
   <i type="string" name="GGA">PE</i>
   <i type="int" name="VOSKOWN">     0</i>
   <i type="logical" name="LHFCALC"> F  </i>
   <i type="string" name="PRECFOCK"></i>
   <i type="logical" name="LSYMGRAD"> F  </i>
   <i type="logical" name="LHFONE"> F  </i>
   <i type="logical" name="LRHFCALC"> F  </i>
   <i type="logical" name="LTHOMAS"> F  </i>
   <i type="logical" name="LMODELHF"> F  </i>
   <i type="logical" name="LFOCKACE"> F  </i>
   <i name="ENCUT4O">     -1.00000000</i>
   <i type="int" name="EXXOEP">     0</i>
   <i type="int" name="FOURORBIT">     0</i>
   <i name="AEXX">      0.00000000</i>
   <i name="HFALPHA">      0.00000000</i>
   <i name="MCALPHA">      0.00000000</i>
   <i name="ALDAX">      1.00000000</i>
   <i name="AGGAX">      1.00000000</i>
   <i name="ALDAC">      1.00000000</i>
   <i name="AGGAC">      1.00000000</i>
   <i type="int" name="NKREDX">     1</i>
   <i type="int" name="NKREDY">     1</i>
   <i type="int" name="NKREDZ">     1</i>
   <i type="logical" name="SHIFTRED"> F  </i>
   <i type="logical" name="ODDONLY"> F  </i>
   <i type="logical" name="EVENONLY"> F  </i>
   <i type="int" name="LMAXFOCK">     0</i>
   <i type="int" name="NMAXFOCKAE">     0</i>
   <i type="logical" name="LFOCKAEDFT"> F  </i>
   <i name="HFSCREEN">      0.00000000</i>
   <i name="HFSCREENC">      0.00000000</i>
   <i type="int" name="NBANDSGWLOW">     0</i>
  </separator>
  <separator name="vdW DFT" >
   <i type="logical" name="LUSE_VDW"> F  </i>
   <i name="Zab_VDW">     -0.84910000</i>
   <i name="PARAM1">      0.12340000</i>
   <i name="PARAM2">      1.00000000</i>
   <i name="PARAM3">      0.00000000</i>
  </separator>
  <separator name="model GW" >
   <i type="int" name="MODEL_GW">     0</i>
   <i name="MODEL_EPS0">     12.40851380</i>
   <i name="MODEL_ALPHA">      1.00000000</i>
  </separator>
  <separator name="linear response parameters" >
   <i type="logical" name="LEPSILON"> F  </i>
   <i type="logical" name="LRPA"> F  </i>
   <i type="logical" name="LNABLA"> F  </i>
   <i type="logical" name="LVEL"> F  </i>
   <i name="CSHIFT">      0.10000000</i>
   <i name="OMEGAMAX">     -1.00000000</i>
   <i name="DEG_THRESHOLD">      0.00200000</i>
   <i name="RTIME">     -0.10000000</i>
   <i name="WPLASMAI">      0.00000000</i>
   <v name="DFIELD">      0.00000000      0.00000000      0.00000000</v>
   <v name="WPLASMA">      0.00000000      0.00000000      0.00000000      0.00000000      0.00000000      0.00000000      0.00000000      0.00000000      0.00000000</v>
  </separator>
  <separator name="orbital magnetization" >
   <i type="logical" name="NUCIND"> F  </i>
   <v name="MAGPOS">      0.00000000      0.00000000      0.00000000</v>
   <i type="logical" name="LNICSALL"> T  </i>
   <i type="logical" name="ORBITALMAG"> F  </i>
   <i type="logical" name="LMAGBLOCH"> F  </i>
   <i type="logical" name="LCHIMAG"> F  </i>
   <i type="logical" name="LGAUGE"> T  </i>
   <i type="int" name="MAGATOM">     0</i>
   <v name="MAGDIPOL">      0.00000000      0.00000000      0.00000000</v>
   <v name="AVECCONST">      0.00000000      0.00000000      0.00000000</v>
  </separator>
  <separator name="response functions" >
   <i type="logical" name="LFINITE_TEMPERATURE"> F  </i>
   <i type="logical" name="LADDER"> F  </i>
   <i type="logical" name="LRPAFORCE"> F  </i>
   <i type="logical" name="LFXC"> F  </i>
   <i type="logical" name="LHARTREE"> T  </i>
   <i type="int" name="IBSE">     0</i>
   <v type="int" name="KPOINT">    -1     0     0     0</v>
   <i type="logical" name="LTCTC"> F  </i>
   <i type="logical" name="LTCTE"> F  </i>
   <i type="logical" name="LTETE"> F  </i>
   <i type="logical" name="LTRIPLET"> F  </i>
   <i type="logical" name="LFXCEPS"> F  </i>
   <i type="logical" name="LFXHEG"> F  </i>
   <i type="int" name="NATURALO">     2</i>
   <i type="logical" name="LHOLEGF"> F  </i>
   <i type="logical" name="L2ORDER"> F  </i>
   <i type="logical" name="LDMP1"> F  </i>
   <i type="logical" name="LMP2LT"> F  </i>
   <i type="logical" name="LSMP2LT"> F  </i>
   <i type="logical" name="LGWLF"> F  </i>
   <i name="ENCUTGW">     -2.00000000</i>
   <i name="ENCUTGWSOFT">     -2.00000000</i>
   <i name="ENCUTLF">     -1.00000000</i>
   <i type="logical" name="LESF_SPLINES"> F  </i>
   <i type="int" name="LMAXMP2">    -1</i>
   <i name="SCISSOR">      0.00000000</i>
   <i type="int" name="NOMEGA">     0</i>
   <i type="int" name="NOMEGAR">     0</i>
   <i type="int" name="NBANDSGW">    -1</i>
   <i type="int" name="NBANDSO">    -1</i>
   <i type="int" name="NBANDSV">    -1</i>
   <i type="int" name="NELMGW">     1</i>
   <i type="int" name="NELMHF">     1</i>
   <i type="int" name="DIM">     3</i>
   <i type="int" name="IESPILON">     4</i>
   <i type="int" name="ANTIRES">     0</i>
   <i name="OMEGAMAX">    -30.00000000</i>
   <i name="OMEGAMIN">    -30.00000000</i>
   <i name="OMEGATL">   -200.00000000</i>
   <i type="int" name="OMEGAGRID">     0</i>
   <i name="CSHIFT">     -0.10000000</i>
   <i type="logical" name="LSELFENERGY"> F  </i>
   <i type="logical" name="LSPECTRAL"> F  </i>
   <i type="logical" name="LSPECTRALGW"> F  </i>
   <i type="logical" name="LSINGLES"> F  </i>
   <i type="logical" name="LFERMIGW"> F  </i>
   <i type="logical" name="ODDONLYGW"> F  </i>
   <i type="logical" name="EVENONLYGW"> F  </i>
   <i type="int" name="NKREDLFX">     1</i>
   <i type="int" name="NKREDLFY">     1</i>
   <i type="int" name="NKREDLFZ">     1</i>
   <i type="int" name="MAXMEM">  2800</i>
   <i type="int" name="TELESCOPE">     0</i>
   <i type="int" name="NTAUPAR">    -1</i>
   <i type="int" name="NOMEGAPAR">    -1</i>
   <i name="DAMP_NEWTON">      0.80000001</i>
   <i name="LAMBDA">      1.00000000</i>
  </separator>
  <separator name="External order field" >
   <i name="OFIELD_KAPPA">      0.00000000</i>
   <v name="OFIELD_K">      0.00000000      0.00000000      0.00000000</v>
   <i name="OFIELD_Q6_NEAR">      0.00000000</i>
   <i name="OFIELD_Q6_FAR">      0.00000000</i>
   <i name="OFIELD_A">      0.00000000</i>
  </separator>
  <separator name="optional k-points parameters" >
   <i type="int" name="KPOINTS_OPT_MODE">     1</i>
   <i type="logical" name="LKPOINTS_OPT"> F  </i>
  </separator>
  <separator name="solvation model" >
   <i type="logical" name="LSOL"> F  </i>
  </separator>
 </parameters>
 <atominfo>
  <atoms>      16 </atoms>
  <types>       2 </types>
  <array name="atoms" >
   <dimension dim="1">ion</dimension>
   <field type="string">element</field>
   <field type="int">atomtype</field>
   <set>
    <rc><c>B </c><c>   1</c></rc>
    <rc><c>B </c><c>   1</c></rc>
    <rc><c>C </c><c>   2</c></rc>
    <rc><c>C </c><c>   2</c></rc>
    <rc><c>C </c><c>   2</c></rc>
    <rc><c>C </c><c>   2</c></rc>
    <rc><c>C </c><c>   2</c></rc>
    <rc><c>C </c><c>   2</c></rc>
    <rc><c>C </c><c>   2</c></rc>
    <rc><c>C </c><c>   2</c></rc>
    <rc><c>C </c><c>   2</c></rc>
    <rc><c>C </c><c>   2</c></rc>
    <rc><c>C </c><c>   2</c></rc>
    <rc><c>C </c><c>   2</c></rc>
    <rc><c>C </c><c>   2</c></rc>
    <rc><c>C </c><c>   2</c></rc>
   </set>
  </array>
  <array name="atomtypes" >
   <dimension dim="1">type</dimension>
   <field type="int">atomspertype</field>
   <field type="string">element</field>
   <field>mass</field>
   <field>valence</field>
   <field type="string">pseudopotential</field>
   <set>
    <rc><c>   2</c><c>B </c><c>     10.81100000</c><c>      3.00000000</c><c>  PAW_PBE B 06Sep2000                   </c></rc>
    <rc><c>  14</c><c>C </c><c>     12.01100000</c><c>      4.00000000</c><c>  PAW_PBE C 08Apr2002                   </c></rc>
   </set>
  </array>
 </atominfo>
 <structure name="initialpos" >
  <crystal>
   <varray name="basis" >
    <v>       4.37083021       2.52350000       0.00000000 </v>
    <v>      -4.37083021       2.52350000       0.00000000 </v>
    <v>       0.00000000       0.00000000      15.00000000 </v>
   </varray>
   <i name="volume">    330.89370127 </i>
   <varray name="rec_basis" >
    <v>       0.11439474       0.19813751       0.00000000 </v>
    <v>      -0.11439474       0.19813751       0.00000000 </v>
    <v>       0.00000000       0.00000000       0.06666667 </v>
   </varray>
  </crystal>
  <varray name="positions" >
   <v>       0.33833034       0.66916432       0.10000000 </v>
   <v>       0.67165522       0.33584146       0.10000000 </v>
   <v>       0.16373946       0.31999962       0.10000000 </v>
   <v>       0.32250218       0.16126397       0.10000000 </v>
   <v>       0.16376430       0.84376384       0.10000000 </v>
   <v>       0.84623863       0.16123684       0.10000000 </v>
   <v>       0.68749850       0.84373000       0.10000000 </v>
   <v>       0.84626736       0.68499594       0.10000000 </v>
   <v>       0.16666600       0.33333300       0.32880000 </v>
   <v>       0.33333300       0.16666600       0.32880000 </v>
   <v>       0.16666600       0.83333300       0.32880000 </v>
   <v>       0.33333300       0.66666600       0.32880000 </v>
   <v>       0.66666600       0.33333300       0.32880000 </v>
   <v>       0.83333300       0.16666600       0.32880000 </v>
   <v>       0.66666600       0.83333300       0.32880000 </v>
   <v>       0.83333300       0.66666600       0.32880000 </v>
  </varray>
 </structure>
 <calculation>
  <scstep>
   <time name="dav">    5.62    5.68</time>
   <time name="total">    5.67    5.73</time>
   <energy>
    <i name="alphaZ">     62.46528105 </i>
    <i name="ewald">   5345.47233537 </i>
    <i name="hartreedc">  -7163.98923131 </i>
    <i name="XCdc">    199.69650452 </i>
    <i name="pawpsdc">   1604.28699987 </i>
    <i name="pawaedc">  -1610.37247880 </i>
    <i name="eentropy">     -0.01642878 </i>
    <i name="bandstr">   -381.97772280 </i>
    <i name="atom">   2202.35892741 </i>
    <i name="e_fr_energy">    257.92418654 </i>
    <i name="e_wo_entrp">    257.94061531 </i>
    <i name="e_0_energy">    257.93240093 </i>
   </energy>
  </scstep>
  <scstep>
   <time name="dav">    8.74    8.82</time>
   <time name="total">    8.74    8.82</time>
   <energy>
    <i name="e_fr_energy">   -129.91917550 </i>
    <i name="e_wo_entrp">   -129.90556374 </i>
    <i name="e_0_energy">   -129.91236962 </i>
   </energy>
  </scstep>
  <scstep>
   <time name="dav">   10.88   10.97</time>
   <time name="total">   10.89   10.97</time>
   <energy>
    <i name="e_fr_energy">   -145.68664422 </i>
    <i name="e_wo_entrp">   -145.67913032 </i>
    <i name="e_0_energy">   -145.68288727 </i>
   </energy>
  </scstep>
  <scstep>
   <time name="dav">    8.94    9.02</time>
   <time name="total">    8.94    9.02</time>
   <energy>
    <i name="e_fr_energy">   -145.73353627 </i>
    <i name="e_wo_entrp">   -145.72620302 </i>
    <i name="e_0_energy">   -145.72986964 </i>
   </energy>
  </scstep>
  <scstep>
   <time name="dav">   10.30   10.38</time>
   <time name="total">   10.56   10.65</time>
   <energy>
    <i name="e_fr_energy">   -145.73361708 </i>
    <i name="e_wo_entrp">   -145.72628409 </i>
    <i name="e_0_energy">   -145.72995058 </i>
   </energy>
  </scstep>
  <scstep>
   <time name="dav">   10.09   10.17</time>
   <time name="total">   10.39   10.48</time>
   <energy>
    <i name="e_fr_energy">   -107.07211532 </i>
    <i name="e_wo_entrp">   -107.05177059 </i>
    <i name="e_0_energy">   -107.06194295 </i>
   </energy>
  </scstep>
  <scstep>
   <time name="dav">    9.56    9.64</time>
   <time name="total">    9.86    9.95</time>
   <energy>
    <i name="e_fr_energy">   -113.76267054 </i>
    <i name="e_wo_entrp">   -113.74642583 </i>
    <i name="e_0_energy">   -113.75454819 </i>
   </energy>
  </scstep>
  <scstep>
   <time name="dav">   10.20   10.27</time>
   <time name="total">   10.49   10.58</time>
   <energy>
    <i name="e_fr_energy">   -123.52032961 </i>
    <i name="e_wo_entrp">   -123.51397712 </i>
    <i name="e_0_energy">   -123.51715336 </i>
   </energy>
  </scstep>
  <scstep>
   <time name="dav">    6.74    6.81</time>
   <time name="total">    7.04    7.11</time>
   <energy>
    <i name="e_fr_energy">   -131.32985628 </i>
    <i name="e_wo_entrp">   -131.32504554 </i>
    <i name="e_0_energy">   -131.32745091 </i>
   </energy>
  </scstep>
  <scstep>
   <time name="dav">    9.27    9.33</time>
   <time name="total">    9.56    9.63</time>
   <energy>
    <i name="e_fr_energy">   -138.38629034 </i>
    <i name="e_wo_entrp">   -138.38463078 </i>
    <i name="e_0_energy">   -138.38546056 </i>
   </energy>
  </scstep>
  <scstep>
   <time name="dav">    9.05    9.12</time>
   <time name="total">    9.34    9.42</time>
   <energy>
    <i name="e_fr_energy">   -139.97681300 </i>
    <i name="e_wo_entrp">   -139.97526758 </i>
    <i name="e_0_energy">   -139.97604029 </i>
   </energy>
  </scstep>
  <scstep>
   <time name="dav">    8.16    8.22</time>
   <time name="total">    8.45    8.53</time>
   <energy>
    <i name="e_fr_energy">   -140.30945184 </i>
    <i name="e_wo_entrp">   -140.30787892 </i>
    <i name="e_0_energy">   -140.30866538 </i>
   </energy>
  </scstep>
  <scstep>
   <time name="dav">    7.52    7.59</time>
   <time name="total">    7.82    7.89</time>
   <energy>
    <i name="e_fr_energy">   -140.36142252 </i>
    <i name="e_wo_entrp">   -140.35974800 </i>
    <i name="e_0_energy">   -140.36058526 </i>
   </energy>
  </scstep>
  <scstep>
   <time name="dav">    7.33    7.39</time>
   <time name="total">    7.63    7.69</time>
   <energy>
    <i name="e_fr_energy">   -140.37780099 </i>
    <i name="e_wo_entrp">   -140.37605942 </i>
    <i name="e_0_energy">   -140.37693021 </i>
   </energy>
  </scstep>
  <scstep>
   <time name="dav">    8.38    8.44</time>
   <time name="total">    8.67    8.75</time>
   <energy>
    <i name="e_fr_energy">   -140.38489055 </i>
    <i name="e_wo_entrp">   -140.38308865 </i>
    <i name="e_0_energy">   -140.38398960 </i>
   </energy>
  </scstep>
  <scstep>
   <time name="dav">    6.07    6.11</time>
   <time name="total">    6.36    6.41</time>
   <energy>
    <i name="e_fr_energy">   -140.38615170 </i>
    <i name="e_wo_entrp">   -140.38432098 </i>
    <i name="e_0_energy">   -140.38523634 </i>
   </energy>
  </scstep>
  <scstep>
   <time name="dav">    6.15    6.19</time>
   <time name="total">    6.44    6.49</time>
   <energy>
    <i name="e_fr_energy">   -140.38780111 </i>
    <i name="e_wo_entrp">   -140.38595489 </i>
    <i name="e_0_energy">   -140.38687800 </i>
   </energy>
  </scstep>
  <scstep>
   <time name="dav">    6.43    6.47</time>
   <time name="total">    6.72    6.78</time>
   <energy>
    <i name="e_fr_energy">   -140.38870083 </i>
    <i name="e_wo_entrp">   -140.38685878 </i>
    <i name="e_0_energy">   -140.38777981 </i>
   </energy>
  </scstep>
  <scstep>
   <time name="dav">    7.63    7.68</time>
   <time name="total">    7.92    7.98</time>
   <energy>
    <i name="e_fr_energy">   -140.38920391 </i>
    <i name="e_wo_entrp">   -140.38736527 </i>
    <i name="e_0_energy">   -140.38828459 </i>
   </energy>
  </scstep>
  <scstep>
   <time name="dav">    6.86    6.90</time>
   <time name="total">    7.15    7.21</time>
   <energy>
    <i name="e_fr_energy">   -140.38927915 </i>
    <i name="e_wo_entrp">   -140.38743856 </i>
    <i name="e_0_energy">   -140.38835886 </i>
   </energy>
  </scstep>
  <scstep>
   <time name="dav">    7.67    7.71</time>
   <time name="total">    7.96    8.01</time>
   <energy>
    <i name="e_fr_energy">   -140.38932567 </i>
    <i name="e_wo_entrp">   -140.38748400 </i>
    <i name="e_0_energy">   -140.38840484 </i>
   </energy>
  </scstep>
  <scstep>
   <time name="dav">    9.99   10.06</time>
   <time name="total">   10.29   10.37</time>
   <energy>
    <i name="e_fr_energy">   -140.38933106 </i>
    <i name="e_wo_entrp">   -140.38748958 </i>
    <i name="e_0_energy">   -140.38841032 </i>
   </energy>
  </scstep>
  <scstep>
   <time name="dav">    8.30    8.35</time>
   <time name="total">    8.59    8.65</time>
   <energy>
    <i name="e_fr_energy">   -140.38933604 </i>
    <i name="e_wo_entrp">   -140.38749435 </i>
    <i name="e_0_energy">   -140.38841519 </i>
   </energy>
  </scstep>
  <scstep>
   <time name="dav">    8.68    8.73</time>
   <time name="total">    8.97    9.03</time>
   <energy>
    <i name="e_fr_energy">   -140.38933917 </i>
    <i name="e_wo_entrp">   -140.38749753 </i>
    <i name="e_0_energy">   -140.38841835 </i>
   </energy>
  </scstep>
  <scstep>
   <time name="dav">    8.51    8.56</time>
   <time name="total">    8.79    8.86</time>
   <energy>
    <i name="e_fr_energy">   -140.38934043 </i>
    <i name="e_wo_entrp">   -140.38749904 </i>
    <i name="e_0_energy">   -140.38841974 </i>
   </energy>
  </scstep>
  <scstep>
   <time name="dav">    7.64    7.70</time>
   <time name="total">    7.67    7.74</time>
   <energy>
    <i name="alphaZ">     62.46528105 </i>
    <i name="ewald">   5345.47233537 </i>
    <i name="hartreedc">  -7394.94927642 </i>
    <i name="XCdc">    206.31920708 </i>
    <i name="pawpsdc">   6296.53551676 </i>
    <i name="pawaedc">  -6304.53983098 </i>
    <i name="eentropy">     -0.00184124 </i>
    <i name="bandstr">   -554.04966022 </i>
    <i name="atom">   2202.35892741 </i>
    <i name="e_fr_energy">   -140.38934118 </i>
    <i name="e_wo_entrp">   -140.38749994 </i>
    <i name="e_0_energy">   -140.38842056 </i>
   </energy>
  </scstep>
  <structure>
   <crystal>
    <varray name="basis" >
     <v>       4.37083021       2.52350000       0.00000000 </v>
     <v>      -4.37083021       2.52350000       0.00000000 </v>
     <v>       0.00000000       0.00000000      15.00000000 </v>
    </varray>
    <i name="volume">    330.89370127 </i>
    <varray name="rec_basis" >
     <v>       0.11439474       0.19813751       0.00000000 </v>
     <v>      -0.11439474       0.19813751       0.00000000 </v>
     <v>       0.00000000       0.00000000       0.06666667 </v>
    </varray>
   </crystal>
   <varray name="positions" >
    <v>       0.33833034       0.66916432       0.10000000 </v>
    <v>       0.67165522       0.33584146       0.10000000 </v>
    <v>       0.16373946       0.31999962       0.10000000 </v>
    <v>       0.32250218       0.16126397       0.10000000 </v>
    <v>       0.16376430       0.84376384       0.10000000 </v>
    <v>       0.84623863       0.16123684       0.10000000 </v>
    <v>       0.68749850       0.84373000       0.10000000 </v>
    <v>       0.84626736       0.68499594       0.10000000 </v>
    <v>       0.16666600       0.33333300       0.32880000 </v>
    <v>       0.33333300       0.16666600       0.32880000 </v>
    <v>       0.16666600       0.83333300       0.32880000 </v>
    <v>       0.33333300       0.66666600       0.32880000 </v>
    <v>       0.66666600       0.33333300       0.32880000 </v>
    <v>       0.83333300       0.16666600       0.32880000 </v>
    <v>       0.66666600       0.83333300       0.32880000 </v>
    <v>       0.83333300       0.66666600       0.32880000 </v>
   </varray>
  </structure>
  <varray name="forces" >
   <v>      -0.00006912      -0.00019061       0.04564085 </v>
   <v>       0.00448068      -0.00042810       0.04563882 </v>
   <v>      -0.28548926       0.49348368      -0.01683726 </v>
   <v>       0.28510280       0.49301395      -0.01694510 </v>
   <v>       0.57116077      -0.00052302      -0.01683257 </v>
   <v>      -0.57071539      -0.00056017      -0.01672416 </v>
   <v>      -0.28570655      -0.49080320      -0.01666766 </v>
   <v>       0.28173694      -0.49315107      -0.01672783 </v>
   <v>       0.02801564      -0.04815039       0.02239576 </v>
   <v>      -0.02797867      -0.04823717       0.02258261 </v>
   <v>      -0.05551681       0.00008151       0.02239388 </v>
   <v>      -0.00036853      -0.00041324      -0.06180406 </v>
   <v>      -0.00011156      -0.00040247      -0.06180339 </v>
   <v>       0.05540106       0.00010523       0.02197218 </v>
   <v>       0.02785682       0.04803763       0.02174044 </v>
   <v>      -0.02779881       0.04813746       0.02197749 </v>
  </varray>
  <varray name="stress" >
   <v>      -2.14732886       0.00369907      -0.00973327 </v>
   <v>       0.00369903      -2.13766670      -0.01672413 </v>
   <v>      -0.00973326      -0.01672412      -2.21215545 </v>
  </varray>
  <energy>
   <i name="e_fr_energy">   -142.26120945 </i>
   <i name="e_wo_entrp">   -142.25936821 </i>
   <i name="e_0_energy">   -142.26028883 </i>
  </energy>
  <time name="totalsc">  226.17  228.03</time>
 </calculation>
 <calculation>
  <scstep>
   <time name="dav">    5.62    5.67</time>
   <time name="total">    5.91    5.97</time>
   <energy>
    <i name="alphaZ">     62.46528105 </i>
    <i name="ewald">   5336.52782245 </i>
    <i name="hartreedc">  -7388.36330964 </i>
    <i name="XCdc">    206.18107471 </i>
    <i name="pawpsdc">   6296.54297743 </i>
    <i name="pawaedc">  -6304.54729371 </i>
    <i name="eentropy">     -0.00296107 </i>
    <i name="bandstr">   -551.50952026 </i>
    <i name="atom">   2202.35892741 </i>
    <i name="e_fr_energy">   -140.34700163 </i>
    <i name="e_wo_entrp">   -140.34404056 </i>
    <i name="e_0_energy">   -140.34552109 </i>
   </energy>
  </scstep>
  <scstep>
   <time name="dav">   10.39   10.47</time>
   <time name="total">   10.68   10.77</time>
   <energy>
    <i name="e_fr_energy">   -140.31064882 </i>
    <i name="e_wo_entrp">   -140.30773366 </i>
    <i name="e_0_energy">   -140.30919124 </i>
   </energy>
  </scstep>
  <scstep>
   <time name="dav">    9.47    9.53</time>
   <time name="total">    9.76    9.84</time>
   <energy>
    <i name="e_fr_energy">   -140.30709340 </i>
    <i name="e_wo_entrp">   -140.30439477 </i>
    <i name="e_0_energy">   -140.30574409 </i>
   </energy>
  </scstep>
  <scstep>
   <time name="dav">    7.86    7.92</time>
   <time name="total">    8.15    8.22</time>
   <energy>
    <i name="e_fr_energy">   -140.30704689 </i>
    <i name="e_wo_entrp">   -140.30435325 </i>
    <i name="e_0_energy">   -140.30570007 </i>
   </energy>
  </scstep>
  <scstep>
   <time name="dav">    7.80    7.85</time>
   <time name="total">    8.09    8.15</time>
   <energy>
    <i name="e_fr_energy">   -140.30705012 </i>
    <i name="e_wo_entrp">   -140.30440785 </i>
    <i name="e_0_energy">   -140.30572898 </i>
   </energy>
  </scstep>
  <scstep>
   <time name="dav">    8.79    8.85</time>
   <time name="total">    9.09    9.15</time>
   <energy>
    <i name="e_fr_energy">   -140.30705490 </i>
    <i name="e_wo_entrp">   -140.30440716 </i>
    <i name="e_0_energy">   -140.30573103 </i>
   </energy>
  </scstep>
  <scstep>
   <time name="dav">    8.97    9.04</time>
   <time name="total">    9.26    9.34</time>
   <energy>
    <i name="e_fr_energy">   -140.30706416 </i>
    <i name="e_wo_entrp">   -140.30441328 </i>
    <i name="e_0_energy">   -140.30573872 </i>
   </energy>
  </scstep>
  <scstep>
   <time name="dav">    7.89    7.94</time>
   <time name="total">    8.18    8.24</time>
   <energy>
    <i name="e_fr_energy">   -140.30707464 </i>
    <i name="e_wo_entrp">   -140.30442522 </i>
    <i name="e_0_energy">   -140.30574993 </i>
   </energy>
  </scstep>
  <scstep>
   <time name="dav">    7.70    7.75</time>
   <time name="total">    7.99    8.05</time>
   <energy>
    <i name="e_fr_energy">   -140.30708753 </i>
    <i name="e_wo_entrp">   -140.30444046 </i>
    <i name="e_0_energy">   -140.30576399 </i>
   </energy>
  </scstep>
  <scstep>
   <time name="dav">    8.07    8.13</time>
   <time name="total">    8.36    8.43</time>
   <energy>
    <i name="e_fr_energy">   -140.30709490 </i>
    <i name="e_wo_entrp">   -140.30444910 </i>
    <i name="e_0_energy">   -140.30577200 </i>
   </energy>
  </scstep>
  <scstep>
   <time name="dav">    7.10    7.14</time>
   <time name="total">    7.39    7.44</time>
   <energy>
    <i name="e_fr_energy">   -140.30710052 </i>
    <i name="e_wo_entrp">   -140.30445535 </i>
    <i name="e_0_energy">   -140.30577793 </i>
   </energy>
  </scstep>
  <scstep>
   <time name="dav">    6.61    6.66</time>
   <time name="total">    6.91    6.97</time>
   <energy>
    <i name="e_fr_energy">   -140.30710266 </i>
    <i name="e_wo_entrp">   -140.30445771 </i>
    <i name="e_0_energy">   -140.30578018 </i>
   </energy>
  </scstep>
  <scstep>
   <time name="dav">    8.65    8.71</time>
   <time name="total">    8.68    8.74</time>
   <energy>
    <i name="alphaZ">     62.46528105 </i>
    <i name="ewald">   5336.52782245 </i>
    <i name="hartreedc">  -7385.73525623 </i>
    <i name="XCdc">    206.07702099 </i>
    <i name="pawpsdc">   6256.19674301 </i>
    <i name="pawaedc">  -6264.18708201 </i>
    <i name="eentropy">     -0.00264491 </i>
    <i name="bandstr">   -554.00791478 </i>
    <i name="atom">   2202.35892741 </i>
    <i name="e_fr_energy">   -140.30710302 </i>
    <i name="e_wo_entrp">   -140.30445811 </i>
    <i name="e_0_energy">   -140.30578057 </i>
   </energy>
  </scstep>
  <structure>
   <crystal>
    <varray name="basis" >
     <v>       4.37083021       2.52350000       0.00000000 </v>
     <v>      -4.37083021       2.52350000       0.00000000 </v>
     <v>       0.00000000       0.00000000      15.00000000 </v>
    </varray>
    <i name="volume">    330.89370127 </i>
    <varray name="rec_basis" >
     <v>       0.11439474       0.19813751       0.00000000 </v>
     <v>      -0.11439474       0.19813751       0.00000000 </v>
     <v>       0.00000000       0.00000000       0.06666667 </v>
    </varray>
   </crystal>
   <varray name="positions" >
    <v>       0.33832814       0.66916288       0.10014679 </v>
    <v>       0.67167585       0.33581264       0.10014678 </v>
    <v>       0.16688098       0.32629221       0.09994585 </v>
    <v>       0.32878814       0.16440313       0.09994550 </v>
    <v>       0.16691137       0.84060677       0.09994586 </v>
    <v>       0.84308367       0.16438110       0.09994621 </v>
    <v>       0.68123034       0.84061530       0.09994639 </v>
    <v>       0.84310831       0.67872725       0.09994620 </v>
    <v>       0.16636036       0.33271814       0.32887203 </v>
    <v>       0.33271751       0.16635932       0.32887263 </v>
    <v>       0.16636040       0.83364016       0.32887202 </v>
    <v>       0.33332702       0.66666408       0.32860123 </v>
    <v>       0.66666154       0.33332977       0.32860123 </v>
    <v>       0.83363975       0.16636126       0.32887067 </v>
    <v>       0.66727891       0.83363844       0.32886992 </v>
    <v>       0.83363972       0.66727954       0.32887068 </v>
   </varray>
  </structure>
  <varray name="forces" >
   <v>       0.00221805       0.00209374       0.01249707 </v>
   <v>      -0.01031841       0.00156231       0.01248512 </v>
   <v>       0.75096786      -1.29757678      -0.00498241 </v>
   <v>      -0.74683367      -1.29668685      -0.00496997 </v>
   <v>      -1.50354676      -0.00096027      -0.00499984 </v>
   <v>       1.50254283       0.00529318      -0.00485916 </v>
   <v>       0.74649472       1.29123904      -0.00482001 </v>
   <v>      -0.74106567       1.29582021      -0.00482930 </v>
   <v>      -0.06190076       0.10540389       0.00181937 </v>
   <v>       0.06137707       0.10560278       0.00187333 </v>
   <v>       0.12161909      -0.00056335       0.00182961 </v>
   <v>       0.00078339       0.00066577      -0.00305223 </v>
   <v>       0.00000479       0.00064835      -0.00305514 </v>
   <v>      -0.12177256      -0.00062556       0.00171853 </v>
   <v>      -0.06149851      -0.10583628       0.00164641 </v>
   <v>       0.06092855      -0.10608016       0.00169862 </v>
  </varray>
  <varray name="stress" >
   <v>      -9.51179154      -0.01022397      -0.00835572 </v>
   <v>      -0.01022397      -9.55308997      -0.01446742 </v>
   <v>      -0.00835573      -0.01446743      -2.30791601 </v>
  </varray>
  <energy>
   <i name="e_fr_energy">   -142.18336511 </i>
   <i name="e_wo_entrp">   -142.18072021 </i>
   <i name="e_0_energy">   -142.18204266 </i>
  </energy>
  <time name="totalsc">  113.70  114.60</time>
 </calculation>
 <calculation>
  <scstep>
   <time name="dav">    5.66    5.70</time>
   <time name="total">    5.96    6.01</time>
   <energy>
    <i name="alphaZ">     62.46528105 </i>
    <i name="ewald">   5342.80074085 </i>
    <i name="hartreedc">  -7390.24619365 </i>
    <i name="XCdc">    206.16968012 </i>
    <i name="pawpsdc">   6256.19134915 </i>
    <i name="pawaedc">  -6264.18169626 </i>
    <i name="eentropy">     -0.00161355 </i>
    <i name="bandstr">   -555.97761700 </i>
    <i name="atom">   2202.35892741 </i>
    <i name="e_fr_energy">   -140.42114188 </i>
    <i name="e_wo_entrp">   -140.41952833 </i>
    <i name="e_0_energy">   -140.42033511 </i>
   </energy>
  </scstep>
  <scstep>
   <time name="dav">    9.79    9.86</time>
   <time name="total">   10.08   10.16</time>
   <energy>
    <i name="e_fr_energy">   -140.40309887 </i>
    <i name="e_wo_entrp">   -140.40135471 </i>
    <i name="e_0_energy">   -140.40222679 </i>
   </energy>
  </scstep>
  <scstep>
   <time name="dav">   10.23   10.30</time>
   <time name="total">   10.52   10.61</time>
   <energy>
    <i name="e_fr_energy">   -140.40097337 </i>
    <i name="e_wo_entrp">   -140.39905459 </i>
    <i name="e_0_energy">   -140.40001398 </i>
   </energy>
  </scstep>
  <scstep>
   <time name="dav">    7.82    7.87</time>
   <time name="total">    8.12    8.18</time>
   <energy>
    <i name="e_fr_energy">   -140.40087695 </i>
    <i name="e_wo_entrp">   -140.39891251 </i>
    <i name="e_0_energy">   -140.39989473 </i>
   </energy>
  </scstep>
  <scstep>
   <time name="dav">    6.52    6.56</time>
   <time name="total">    6.81    6.86</time>
   <energy>
    <i name="e_fr_energy">   -140.40086436 </i>
    <i name="e_wo_entrp">   -140.39882080 </i>
    <i name="e_0_energy">   -140.39984258 </i>
   </energy>
  </scstep>
  <scstep>
   <time name="dav">   10.16   10.22</time>
   <time name="total">   10.45   10.52</time>
   <energy>
    <i name="e_fr_energy">   -140.40086112 </i>
    <i name="e_wo_entrp">   -140.39881837 </i>
    <i name="e_0_energy">   -140.39983975 </i>
   </energy>
  </scstep>
  <scstep>
   <time name="dav">    8.63    8.68</time>
   <time name="total">    8.92    8.99</time>
   <energy>
    <i name="e_fr_energy">   -140.40086344 </i>
    <i name="e_wo_entrp">   -140.39881464 </i>
    <i name="e_0_energy">   -140.39983904 </i>
   </energy>
  </scstep>
  <scstep>
   <time name="dav">    9.90    9.96</time>
   <time name="total">   10.19   10.27</time>
   <energy>
    <i name="e_fr_energy">   -140.40086684 </i>
    <i name="e_wo_entrp">   -140.39881395 </i>
    <i name="e_0_energy">   -140.39984039 </i>
   </energy>
  </scstep>
  <scstep>
   <time name="dav">    7.46    7.52</time>
   <time name="total">    7.75    7.82</time>
   <energy>
    <i name="e_fr_energy">   -140.40087352 </i>
    <i name="e_wo_entrp">   -140.39881763 </i>
    <i name="e_0_energy">   -140.39984557 </i>
   </energy>
  </scstep>
  <scstep>
   <time name="dav">    7.55    7.60</time>
   <time name="total">    7.84    7.90</time>
   <energy>
    <i name="e_fr_energy">   -140.40087942 </i>
    <i name="e_wo_entrp">   -140.39882135 </i>
    <i name="e_0_energy">   -140.39985038 </i>
   </energy>
  </scstep>
  <scstep>
   <time name="dav">    5.73    5.77</time>
   <time name="total">    6.02    6.07</time>
   <energy>
    <i name="e_fr_energy">   -140.40088374 </i>
    <i name="e_wo_entrp">   -140.39882559 </i>
    <i name="e_0_energy">   -140.39985466 </i>
   </energy>
  </scstep>
  <scstep>
   <time name="dav">    7.71    7.76</time>
   <time name="total">    8.00    8.07</time>
   <energy>
    <i name="e_fr_energy">   -140.40088506 </i>
    <i name="e_wo_entrp">   -140.39882693 </i>
    <i name="e_0_energy">   -140.39985599 </i>
   </energy>
  </scstep>
  <scstep>
   <time name="dav">    7.26    7.31</time>
   <time name="total">    7.29    7.34</time>
   <energy>
    <i name="alphaZ">     62.46528105 </i>
    <i name="ewald">   5342.80074085 </i>
    <i name="hartreedc">  -7392.24928324 </i>
    <i name="XCdc">    206.24818131 </i>
    <i name="pawpsdc">   6282.84445583 </i>
    <i name="pawaedc">  -6290.84387636 </i>
    <i name="eentropy">     -0.00205816 </i>
    <i name="bandstr">   -554.02325414 </i>
    <i name="atom">   2202.35892741 </i>
    <i name="e_fr_energy">   -140.40088545 </i>
    <i name="e_wo_entrp">   -140.39882729 </i>
    <i name="e_0_energy">   -140.39985637 </i>
   </energy>
  </scstep>
  <structure>
   <crystal>
    <varray name="basis" >
     <v>       4.37083021       2.52350000       0.00000000 </v>
     <v>      -4.37083021       2.52350000       0.00000000 </v>
     <v>       0.00000000       0.00000000      15.00000000 </v>
    </varray>
    <i name="volume">    330.89370127 </i>
    <varray name="rec_basis" >
     <v>       0.11439474       0.19813751       0.00000000 </v>
     <v>      -0.11439474       0.19813751       0.00000000 </v>
     <v>       0.00000000       0.00000000       0.06666667 </v>
    </varray>
   </crystal>
   <varray name="positions" >
    <v>       0.33832974       0.66916393       0.10004011 </v>
    <v>       0.67166085       0.33583359       0.10004011 </v>
    <v>       0.16459787       0.32171904       0.09998520 </v>
    <v>       0.32421979       0.16212173       0.09998511 </v>
    <v>       0.16462422       0.84290119       0.09998521 </v>
    <v>       0.84537656       0.16209599       0.09998530 </v>
    <v>       0.68578576       0.84287893       0.09998535 </v>
    <v>       0.84540416       0.68328306       0.09998530 </v>
    <v>       0.16658248       0.33316499       0.32881968 </v>
    <v>       0.33316482       0.16658220       0.32881985 </v>
    <v>       0.16658250       0.83341693       0.32881968 </v>
    <v>       0.33333136       0.66666548       0.32874569 </v>
    <v>       0.66666478       0.33333212       0.32874569 </v>
    <v>       0.83341682       0.16658273       0.32881931 </v>
    <v>       0.66683347       0.83341646       0.32881911 </v>
    <v>       0.83341681       0.66683365       0.32881931 </v>
   </varray>
  </structure>
  <varray name="forces" >
   <v>       0.00047153       0.00035115       0.03611625 </v>
   <v>       0.00070969       0.00003503       0.03611167 </v>
   <v>       0.00244848      -0.00406548      -0.01337131 </v>
   <v>      -0.00162802      -0.00424976      -0.01345644 </v>
   <v>      -0.00515283      -0.00069164      -0.01337073 </v>
   <v>       0.00499471       0.00119365      -0.01324467 </v>
   <v>       0.00104350       0.00423173      -0.01321388 </v>
   <v>      -0.00237852       0.00405544      -0.01324409 </v>
   <v>       0.00354204      -0.00636129       0.01681388 </v>
   <v>      -0.00366242      -0.00636953       0.01696512 </v>
   <v>      -0.00730910      -0.00009874       0.01681456 </v>
   <v>      -0.00005634      -0.00012461      -0.04607979 </v>
   <v>      -0.00008484      -0.00012175      -0.04608006 </v>
   <v>       0.00717950      -0.00009763       0.01647637 </v>
   <v>       0.00353661       0.00615351       0.01628760 </v>
   <v>      -0.00365400       0.00615994       0.01647553 </v>
  </varray>
  <varray name="stress" >
   <v>      -4.65126810      -0.00120372      -0.00931219 </v>
   <v>      -0.00120372      -4.65453326      -0.01611280 </v>
   <v>      -0.00931223      -0.01611277      -2.24203696 </v>
  </varray>
  <energy>
   <i name="e_fr_energy">   -142.27423176 </i>
   <i name="e_wo_entrp">   -142.27217360 </i>
   <i name="e_0_energy">   -142.27320268 </i>
  </energy>
  <time name="totalsc">  113.20  114.08</time>
 </calculation>
 <calculation>
  <scstep>
   <time name="dav">    5.60    5.65</time>
   <time name="total">    5.89    5.95</time>
   <energy>
    <i name="alphaZ">     62.46528105 </i>
    <i name="ewald">   5342.42397859 </i>
    <i name="hartreedc">  -7391.86785591 </i>
    <i name="XCdc">    206.24857835 </i>
    <i name="pawpsdc">   6282.84526409 </i>
    <i name="pawaedc">  -6290.84468080 </i>
    <i name="eentropy">     -0.00204672 </i>
    <i name="bandstr">   -554.02861439 </i>
    <i name="atom">   2202.35892741 </i>
    <i name="e_fr_energy">   -140.40116833 </i>
    <i name="e_wo_entrp">   -140.39912161 </i>
    <i name="e_0_energy">   -140.40014497 </i>
   </energy>
  </scstep>
  <scstep>
   <time name="dav">   11.30   11.38</time>
   <time name="total">   11.60   11.68</time>
   <energy>
    <i name="e_fr_energy">   -140.40117518 </i>
    <i name="e_wo_entrp">   -140.39913330 </i>
    <i name="e_0_energy">   -140.40015424 </i>
   </energy>
  </scstep>
  <scstep>
   <time name="dav">    6.52    6.56</time>
   <time name="total">    6.81    6.87</time>
   <energy>
    <i name="e_fr_energy">   -140.40117706 </i>
    <i name="e_wo_entrp">   -140.39914140 </i>
    <i name="e_0_energy">   -140.40015923 </i>
   </energy>
  </scstep>
  <scstep>
   <time name="dav">    9.69    9.76</time>
   <time name="total">    9.72    9.79</time>
   <energy>
    <i name="alphaZ">     62.46528105 </i>
    <i name="ewald">   5342.42397859 </i>
    <i name="hartreedc">  -7391.84538964 </i>
    <i name="XCdc">    206.24861784 </i>
    <i name="pawpsdc">   6282.83145395 </i>
    <i name="pawaedc">  -6290.83087797 </i>
    <i name="eentropy">     -0.00203459 </i>
    <i name="bandstr">   -554.05113374 </i>
    <i name="atom">   2202.35892741 </i>
    <i name="e_fr_energy">   -140.40117711 </i>
    <i name="e_wo_entrp">   -140.39914251 </i>
    <i name="e_0_energy">   -140.40015981 </i>
   </energy>
  </scstep>
  <structure>
   <crystal>
    <varray name="basis" >
     <v>       4.37083021       2.52350000       0.00000000 </v>
     <v>      -4.37083021       2.52350000       0.00000000 </v>
     <v>       0.00000000       0.00000000      15.00000000 </v>
    </varray>
    <i name="volume">    330.89370127 </i>
    <varray name="rec_basis" >
     <v>       0.11439474       0.19813751       0.00000000 </v>
     <v>      -0.11439474       0.19813751       0.00000000 </v>
     <v>       0.00000000       0.00000000       0.06666667 </v>
    </varray>
   </crystal>
   <varray name="positions" >
    <v>       0.33833482       0.66916457       0.10014009 </v>
    <v>       0.67166459       0.33583039       0.10014008 </v>
    <v>       0.16459134       0.32170461       0.09994819 </v>
    <v>       0.32420769       0.16210982       0.09994786 </v>
    <v>       0.16460943       0.84290463       0.09994819 </v>
    <v>       0.84539466       0.16209734       0.09994864 </v>
    <v>       0.68579504       0.84289356       0.09994877 </v>
    <v>       0.84541085       0.68329719       0.09994864 </v>
    <v>       0.16654575       0.33309335       0.32886624 </v>
    <v>       0.33309255       0.16654596       0.32886683 </v>
    <v>       0.16654574       0.83345208       0.32886625 </v>
    <v>       0.33333005       0.66666471       0.32861807 </v>
    <v>       0.66666336       0.33333151       0.32861807 </v>
    <v>       0.83345136       0.16654660       0.32886494 </v>
    <v>       0.66690338       0.83345152       0.32886421 </v>
    <v>       0.83345138       0.66690416       0.32886494 </v>
   </varray>
  </structure>
  <varray name="forces" >
   <v>      -0.00128937      -0.00067185       0.01753202 </v>
   <v>      -0.00035924       0.00042477       0.01753167 </v>
   <v>       0.00219694       0.00166861      -0.00681816 </v>
   <v>      -0.00061386      -0.00028984      -0.00689511 </v>
   <v>       0.00116046       0.00046837      -0.00682214 </v>
   <v>      -0.00036180      -0.00102092      -0.00669851 </v>
   <v>       0.00214716       0.00130639      -0.00665386 </v>
   <v>      -0.00238538      -0.00104945      -0.00669745 </v>
   <v>      -0.00650363       0.01108184       0.00426699 </v>
   <v>       0.00636542       0.01109438       0.00435499 </v>
   <v>       0.01290572      -0.00012202       0.00426683 </v>
   <v>      -0.00007871      -0.00006606      -0.00975896 </v>
   <v>      -0.00000872      -0.00007309      -0.00975925 </v>
   <v>      -0.01303263      -0.00012276       0.00408313 </v>
   <v>      -0.00649505      -0.01131085       0.00398660 </v>
   <v>       0.00635271      -0.01131753       0.00408123 </v>
  </varray>
  <varray name="stress" >
   <v>      -4.63823869       0.00619848      -0.00909770 </v>
   <v>       0.00619845      -4.61887662      -0.01573405 </v>
   <v>      -0.00909769      -0.01573402      -2.28332897 </v>
  </varray>
  <energy>
   <i name="e_fr_energy">   -142.27449260 </i>
   <i name="e_wo_entrp">   -142.27245801 </i>
   <i name="e_0_energy">   -142.27347531 </i>
  </energy>
  <time name="totalsc">   39.26   39.57</time>
 </calculation>
 <calculation>
  <scstep>
   <time name="dav">    5.61    5.65</time>
   <time name="total">    5.90    5.95</time>
   <energy>
    <i name="alphaZ">     62.46528105 </i>
    <i name="ewald">   5342.29367335 </i>
    <i name="hartreedc">  -7391.71015099 </i>
    <i name="XCdc">    206.24869435 </i>
    <i name="pawpsdc">   6282.85217144 </i>
    <i name="pawaedc">  -6290.85159516 </i>
    <i name="eentropy">     -0.00202991 </i>
    <i name="bandstr">   -554.05617627 </i>
    <i name="atom">   2202.35892741 </i>
    <i name="e_fr_energy">   -140.40120474 </i>
    <i name="e_wo_entrp">   -140.39917482 </i>
    <i name="e_0_energy">   -140.40018978 </i>
   </energy>
  </scstep>
  <scstep>
   <time name="dav">   10.68   10.74</time>
   <time name="total">   10.97   11.05</time>
   <energy>
    <i name="e_fr_energy">   -140.40120545 </i>
    <i name="e_wo_entrp">   -140.39917750 </i>
    <i name="e_0_energy">   -140.40019148 </i>
   </energy>
  </scstep>
  <scstep>
   <time name="dav">    6.57    6.62</time>
   <time name="total">    6.61    6.66</time>
   <energy>
    <i name="alphaZ">     62.46528105 </i>
    <i name="ewald">   5342.29367335 </i>
    <i name="hartreedc">  -7391.69840524 </i>
    <i name="XCdc">    206.24870234 </i>
    <i name="pawpsdc">   6282.88031938 </i>
    <i name="pawaedc">  -6290.87975635 </i>
    <i name="eentropy">     -0.00202525 </i>
    <i name="bandstr">   -554.06792268 </i>
    <i name="atom">   2202.35892741 </i>
    <i name="e_fr_energy">   -140.40120599 </i>
    <i name="e_wo_entrp">   -140.39918074 </i>
    <i name="e_0_energy">   -140.40019337 </i>
   </energy>
  </scstep>
  <structure>
   <crystal>
    <varray name="basis" >
     <v>       4.37083021       2.52350000       0.00000000 </v>
     <v>      -4.37083021       2.52350000       0.00000000 </v>
     <v>       0.00000000       0.00000000      15.00000000 </v>
    </varray>
    <i name="volume">    330.89370127 </i>
    <varray name="rec_basis" >
     <v>       0.11439474       0.19813751       0.00000000 </v>
     <v>      -0.11439474       0.19813751       0.00000000 </v>
     <v>       0.00000000       0.00000000       0.06666667 </v>
    </varray>
   </crystal>
   <varray name="positions" >
    <v>       0.33833656       0.66916478       0.10017431 </v>
    <v>       0.67166586       0.33582929       0.10017429 </v>
    <v>       0.16458911       0.32169967       0.09993552 </v>
    <v>       0.32420355       0.16210574       0.09993511 </v>
    <v>       0.16460437       0.84290580       0.09993553 </v>
    <v>       0.84540086       0.16209780       0.09993609 </v>
    <v>       0.68579822       0.84289857       0.09993625 </v>
    <v>       0.84541314       0.68330203       0.09993609 </v>
    <v>       0.16653318       0.33306884       0.32888218 </v>
    <v>       0.33306781       0.16653356       0.32888291 </v>
    <v>       0.16653316       0.83346411       0.32888218 </v>
    <v>       0.33332960       0.66666445       0.32857439 </v>
    <v>       0.66666288       0.33333130       0.32857439 </v>
    <v>       0.83346318       0.16653424       0.32888055 </v>
    <v>       0.66692730       0.83346352       0.32887965 </v>
    <v>       0.83346321       0.66692829       0.32888056 </v>
   </varray>
  </structure>
  <varray name="forces" >
   <v>      -0.00186904      -0.00100523       0.01117000 </v>
   <v>      -0.00075537       0.00055634       0.01117165 </v>
   <v>       0.00211933       0.00367932      -0.00454399 </v>
   <v>      -0.00026183       0.00109936      -0.00462577 </v>
   <v>       0.00334628       0.00087063      -0.00454485 </v>
   <v>      -0.00223110      -0.00179555      -0.00442125 </v>
   <v>       0.00252930       0.00025534      -0.00438863 </v>
   <v>      -0.00238486      -0.00283338      -0.00443635 </v>
   <v>      -0.01017818       0.01746084      -0.00006904 </v>
   <v>       0.01003374       0.01748218      -0.00000262 </v>
   <v>       0.02029654      -0.00013003      -0.00006934 </v>
   <v>      -0.00008758      -0.00004683       0.00271365 </v>
   <v>       0.00001521      -0.00005789       0.00271394 </v>
   <v>      -0.02042076      -0.00013172      -0.00020022 </v>
   <v>      -0.01016411      -0.01769541      -0.00026506 </v>
   <v>       0.01001243      -0.01770797      -0.00020212 </v>
  </varray>
  <varray name="stress" >
   <v>      -4.63459677       0.00858044      -0.00900690 </v>
   <v>       0.00858042      -4.60798889      -0.01561627 </v>
   <v>      -0.00900690      -0.01561625      -2.29476932 </v>
  </varray>
  <energy>
   <i name="e_fr_energy">   -142.27451107 </i>
   <i name="e_wo_entrp">   -142.27248582 </i>
   <i name="e_0_energy">   -142.27349844 </i>
  </energy>
  <time name="totalsc">   28.73   28.94</time>
 </calculation>
 <calculation>
  <scstep>
   <time name="dav">    6.11    6.15</time>
   <time name="total">    6.40    6.45</time>
   <energy>
    <i name="alphaZ">     62.46528105 </i>
    <i name="ewald">   5341.96341502 </i>
    <i name="hartreedc">  -7391.37051165 </i>
    <i name="XCdc">    206.24840708 </i>
    <i name="pawpsdc">   6282.88571036 </i>
    <i name="pawaedc">  -6290.88514376 </i>
    <i name="eentropy">     -0.00202913 </i>
    <i name="bandstr">   -554.06525293 </i>
    <i name="atom">   2202.35892741 </i>
    <i name="e_fr_energy">   -140.40119654 </i>
    <i name="e_wo_entrp">   -140.39916741 </i>
    <i name="e_0_energy">   -140.40018197 </i>
   </energy>
  </scstep>
  <scstep>
   <time name="dav">    6.01    6.05</time>
   <time name="total">    6.30    6.35</time>
   <energy>
    <i name="e_fr_energy">   -140.40119123 </i>
    <i name="e_wo_entrp">   -140.39916444 </i>
    <i name="e_0_energy">   -140.40017783 </i>
   </energy>
  </scstep>
  <scstep>
   <time name="dav">    8.39    8.44</time>
   <time name="total">    8.68    8.74</time>
   <energy>
    <i name="e_fr_energy">   -140.40119128 </i>
    <i name="e_wo_entrp">   -140.39916679 </i>
    <i name="e_0_energy">   -140.40017904 </i>
   </energy>
  </scstep>
  <scstep>
   <time name="dav">    8.74    8.80</time>
   <time name="total">    8.78    8.83</time>
   <energy>
    <i name="alphaZ">     62.46528105 </i>
    <i name="ewald">   5341.96341502 </i>
    <i name="hartreedc">  -7391.34455291 </i>
    <i name="XCdc">    206.24814654 </i>
    <i name="pawpsdc">   6282.67801445 </i>
    <i name="pawaedc">  -6290.67737837 </i>
    <i name="eentropy">     -0.00202364 </i>
    <i name="bandstr">   -554.09102087 </i>
    <i name="atom">   2202.35892741 </i>
    <i name="e_fr_energy">   -140.40119132 </i>
    <i name="e_wo_entrp">   -140.39916768 </i>
    <i name="e_0_energy">   -140.40017950 </i>
   </energy>
  </scstep>
  <structure>
   <crystal>
    <varray name="basis" >
     <v>       4.37083021       2.52350000       0.00000000 </v>
     <v>      -4.37083021       2.52350000       0.00000000 </v>
     <v>       0.00000000       0.00000000      15.00000000 </v>
    </varray>
    <i name="volume">    330.89370127 </i>
    <varray name="rec_basis" >
     <v>       0.11439474       0.19813751       0.00000000 </v>
     <v>      -0.11439474       0.19813751       0.00000000 </v>
     <v>       0.00000000       0.00000000       0.06666667 </v>
    </varray>
   </crystal>
   <varray name="positions" >
    <v>       0.33831997       0.66916563       0.10023854 </v>
    <v>       0.67166809       0.33583695       0.10023852 </v>
    <v>       0.16462986       0.32171656       0.09991054 </v>
    <v>       0.32420802       0.16211291       0.09990981 </v>
    <v>       0.16462419       0.84289762       0.09991054 </v>
    <v>       0.84537963       0.16209380       0.09991158 </v>
    <v>       0.68581611       0.84289266       0.09991187 </v>
    <v>       0.84537849       0.68329376       0.09991153 </v>
    <v>       0.16662275       0.33325002       0.32889662 </v>
    <v>       0.33324825       0.16662420       0.32889767 </v>
    <v>       0.16662276       0.83337174       0.32889662 </v>
    <v>       0.33332834       0.66666425       0.32854225 </v>
    <v>       0.66666201       0.33333052       0.32854225 </v>
    <v>       0.83336998       0.16662464       0.32889431 </v>
    <v>       0.66674360       0.83337131       0.32889305 </v>
    <v>       0.83336996       0.66674544       0.32889431 </v>
   </varray>
  </structure>
  <varray name="forces" >
   <v>       0.00538388       0.00388172      -0.00129816 </v>
   <v>      -0.00106142      -0.00186916      -0.00129491 </v>
   <v>      -0.00784457      -0.00886868      -0.00047073 </v>
   <v>       0.00555922      -0.00032010      -0.00051496 </v>
   <v>      -0.00914055      -0.00477060      -0.00048141 </v>
   <v>       0.00687573       0.00800730      -0.00034332 </v>
   <v>      -0.00969023      -0.00308254      -0.00026726 </v>
   <v>       0.01042223       0.00786090      -0.00034989 </v>
   <v>       0.01593172      -0.02794023      -0.00320927 </v>
   <v>      -0.01602001      -0.02798149      -0.00319186 </v>
   <v>      -0.03237365      -0.00005220      -0.00321031 </v>
   <v>       0.00001004      -0.00021714       0.01218496 </v>
   <v>      -0.00024113      -0.00018594       0.01218211 </v>
   <v>       0.03226297      -0.00005871      -0.00324052 </v>
   <v>       0.01590996       0.02779650      -0.00325447 </v>
   <v>      -0.01598421       0.02780038      -0.00324002 </v>
  </varray>
  <varray name="stress" >
   <v>      -4.58912369      -0.03087689      -0.00903862 </v>
   <v>      -0.03087686      -4.68618087      -0.01568573 </v>
   <v>      -0.00903861      -0.01568573      -2.29850898 </v>
  </varray>
  <energy>
   <i name="e_fr_energy">   -142.27448211 </i>
   <i name="e_wo_entrp">   -142.27245847 </i>
   <i name="e_0_energy">   -142.27347029 </i>
  </energy>
  <time name="totalsc">   35.42   35.68</time>
 </calculation>
 <calculation>
  <scstep>
   <time name="dav">    6.43    6.47</time>
   <time name="total">    6.73    6.78</time>
   <energy>
    <i name="alphaZ">     62.46528105 </i>
    <i name="ewald">   5342.15582419 </i>
    <i name="hartreedc">  -7391.52715889 </i>
    <i name="XCdc">    206.24826973 </i>
    <i name="pawpsdc">   6282.76472473 </i>
    <i name="pawaedc">  -6290.76411189 </i>
    <i name="eentropy">     -0.00201999 </i>
    <i name="bandstr">   -554.10097607 </i>
    <i name="atom">   2202.35892741 </i>
    <i name="e_fr_energy">   -140.40123973 </i>
    <i name="e_wo_entrp">   -140.39921974 </i>
    <i name="e_0_energy">   -140.40022974 </i>
   </energy>
  </scstep>
  <scstep>
   <time name="dav">    5.85    5.89</time>
   <time name="total">    6.14    6.19</time>
   <energy>
    <i name="e_fr_energy">   -140.40123742 </i>
    <i name="e_wo_entrp">   -140.39921653 </i>
    <i name="e_0_energy">   -140.40022698 </i>
   </energy>
  </scstep>
  <scstep>
   <time name="dav">    6.15    6.18</time>
   <time name="total">    6.44    6.49</time>
   <energy>
    <i name="e_fr_energy">   -140.40123746 </i>
    <i name="e_wo_entrp">   -140.39921553 </i>
    <i name="e_0_energy">   -140.40022649 </i>
   </energy>
  </scstep>
  <scstep>
   <time name="dav">    6.59    6.64</time>
   <time name="total">    6.63    6.68</time>
   <energy>
    <i name="alphaZ">     62.46528105 </i>
    <i name="ewald">   5342.15582419 </i>
    <i name="hartreedc">  -7391.53316639 </i>
    <i name="XCdc">    206.24836114 </i>
    <i name="pawpsdc">   6282.93724511 </i>
    <i name="pawaedc">  -6290.93668444 </i>
    <i name="eentropy">     -0.00202226 </i>
    <i name="bandstr">   -554.09500344 </i>
    <i name="atom">   2202.35892741 </i>
    <i name="e_fr_energy">   -140.40123762 </i>
    <i name="e_wo_entrp">   -140.39921536 </i>
    <i name="e_0_energy">   -140.40022649 </i>
   </energy>
  </scstep>
  <structure>
   <crystal>
    <varray name="basis" >
     <v>       4.37083021       2.52350000       0.00000000 </v>
     <v>      -4.37083021       2.52350000       0.00000000 </v>
     <v>       0.00000000       0.00000000      15.00000000 </v>
    </varray>
    <i name="volume">    330.89370127 </i>
    <varray name="rec_basis" >
     <v>       0.11439474       0.19813751       0.00000000 </v>
     <v>      -0.11439474       0.19813751       0.00000000 </v>
     <v>       0.00000000       0.00000000       0.06666667 </v>
    </varray>
   </crystal>
   <varray name="positions" >
    <v>       0.33832964       0.66916514       0.10020109 </v>
    <v>       0.67166679       0.33583248       0.10020108 </v>
    <v>       0.16460610       0.32170671       0.09992510 </v>
    <v>       0.32420541       0.16210873       0.09992456 </v>
    <v>       0.16461264       0.84290239       0.09992511 </v>
    <v>       0.84539200       0.16209613       0.09992587 </v>
    <v>       0.68580568       0.84289611       0.09992608 </v>
    <v>       0.84539869       0.68329858       0.09992585 </v>
    <v>       0.16657053       0.33314440       0.32888820 </v>
    <v>       0.33314306       0.16657136       0.32888906 </v>
    <v>       0.16657053       0.83342559       0.32888820 </v>
    <v>       0.33332908       0.66666437       0.32856099 </v>
    <v>       0.66666252       0.33333098       0.32856099 </v>
    <v>       0.83342432       0.16657194       0.32888629 </v>
    <v>       0.66685069       0.83342507       0.32888524 </v>
    <v>       0.83342432       0.66685204       0.32888629 </v>
   </varray>
  </structure>
  <varray name="forces" >
   <v>       0.00112887       0.00102564       0.00586282 </v>
   <v>      -0.00080636      -0.00043902       0.00585957 </v>
   <v>      -0.00208394      -0.00177221      -0.00282250 </v>
   <v>       0.00215887       0.00033489      -0.00288605 </v>
   <v>      -0.00203184      -0.00154508      -0.00282662 </v>
   <v>       0.00171467       0.00238445      -0.00272011 </v>
   <v>      -0.00262179      -0.00098562      -0.00264134 </v>
   <v>       0.00302743       0.00182481      -0.00270684 </v>
   <v>       0.00120538      -0.00232986      -0.00133433 </v>
   <v>      -0.00132299      -0.00233417      -0.00128799 </v>
   <v>      -0.00266018      -0.00009729      -0.00133399 </v>
   <v>      -0.00004344      -0.00011779       0.00657821 </v>
   <v>      -0.00009109      -0.00011131       0.00658025 </v>
   <v>       0.00254288      -0.00009928      -0.00142556 </v>
   <v>       0.00120321       0.00213250      -0.00146959 </v>
   <v>      -0.00131967       0.00212934      -0.00142592 </v>
  </varray>
  <varray name="stress" >
   <v>      -4.61418992      -0.00933006      -0.00902696 </v>
   <v>      -0.00933007      -4.64361099      -0.01563449 </v>
   <v>      -0.00902695      -0.01563446      -2.28844492 </v>
  </varray>
  <energy>
   <i name="e_fr_energy">   -142.27453684 </i>
   <i name="e_wo_entrp">   -142.27251458 </i>
   <i name="e_0_energy">   -142.27352571 </i>
  </energy>
  <time name="totalsc">   31.17   31.42</time>
 </calculation>
 <calculation>
  <scstep>
   <time name="dav">    6.15    6.20</time>
   <time name="total">    6.45    6.50</time>
   <energy>
    <i name="alphaZ">     62.46528105 </i>
    <i name="ewald">   5342.16095306 </i>
    <i name="hartreedc">  -7391.53875800 </i>
    <i name="XCdc">    206.24836082 </i>
    <i name="pawpsdc">   6282.88986805 </i>
    <i name="pawaedc">  -6290.88929863 </i>
    <i name="eentropy">     -0.00202256 </i>
    <i name="bandstr">   -554.09454876 </i>
    <i name="atom">   2202.35892741 </i>
    <i name="e_fr_energy">   -140.40123757 </i>
    <i name="e_wo_entrp">   -140.39921501 </i>
    <i name="e_0_energy">   -140.40022629 </i>
   </energy>
  </scstep>
  <scstep>
   <time name="dav">   10.15   10.22</time>
   <time name="total">   10.19   10.26</time>
   <energy>
    <i name="alphaZ">     62.46528105 </i>
    <i name="ewald">   5342.16095306 </i>
    <i name="hartreedc">  -7391.53871446 </i>
    <i name="XCdc">    206.24835905 </i>
    <i name="pawpsdc">   6282.88331592 </i>
    <i name="pawaedc">  -6290.88274372 </i>
    <i name="eentropy">     -0.00202260 </i>
    <i name="bandstr">   -554.09459332 </i>
    <i name="atom">   2202.35892741 </i>
    <i name="e_fr_energy">   -140.40123762 </i>
    <i name="e_wo_entrp">   -140.39921502 </i>
    <i name="e_0_energy">   -140.40022632 </i>
   </energy>
  </scstep>
  <structure>
   <crystal>
    <varray name="basis" >
     <v>       4.37083021       2.52350000       0.00000000 </v>
     <v>      -4.37083021       2.52350000       0.00000000 </v>
     <v>       0.00000000       0.00000000      15.00000000 </v>
    </varray>
    <i name="volume">    330.89370127 </i>
    <varray name="rec_basis" >
     <v>       0.11439474       0.19813751       0.00000000 </v>
     <v>      -0.11439474       0.19813751       0.00000000 </v>
     <v>       0.00000000       0.00000000       0.06666667 </v>
    </varray>
   </crystal>
   <varray name="positions" >
    <v>       0.33832990       0.66916512       0.10020010 </v>
    <v>       0.67166676       0.33583236       0.10020008 </v>
    <v>       0.16460547       0.32170645       0.09992549 </v>
    <v>       0.32420535       0.16210862       0.09992495 </v>
    <v>       0.16461233       0.84290252       0.09992550 </v>
    <v>       0.84539233       0.16209619       0.09992625 </v>
    <v>       0.68580540       0.84289620       0.09992646 </v>
    <v>       0.84539922       0.68329871       0.09992623 </v>
    <v>       0.16656914       0.33314158       0.32888798 </v>
    <v>       0.33314026       0.16656995       0.32888883 </v>
    <v>       0.16656914       0.83342702       0.32888798 </v>
    <v>       0.33332910       0.66666437       0.32856149 </v>
    <v>       0.66666253       0.33333099       0.32856149 </v>
    <v>       0.83342576       0.16657054       0.32888608 </v>
    <v>       0.66685355       0.83342650       0.32888503 </v>
    <v>       0.83342577       0.66685488       0.32888608 </v>
   </varray>
  </structure>
  <varray name="forces" >
   <v>       0.00101941       0.00094289       0.00609500 </v>
   <v>      -0.00083027      -0.00041023       0.00609587 </v>
   <v>      -0.00187816      -0.00150248      -0.00291859 </v>
   <v>       0.00204534       0.00040661      -0.00298356 </v>
   <v>      -0.00178678      -0.00142137      -0.00292211 </v>
   <v>       0.00154432       0.00218305      -0.00280407 </v>
   <v>      -0.00237793      -0.00096111      -0.00273854 </v>
   <v>       0.00275344       0.00159117      -0.00279962 </v>
   <v>       0.00058780      -0.00125651      -0.00125434 </v>
   <v>      -0.00070728      -0.00125996      -0.00120657 </v>
   <v>      -0.00141548      -0.00009871      -0.00125429 </v>
   <v>      -0.00004624      -0.00011412       0.00638880 </v>
   <v>      -0.00008712      -0.00010909       0.00638887 </v>
   <v>       0.00129789      -0.00010187      -0.00134724 </v>
   <v>       0.00058700       0.00105827      -0.00139213 </v>
   <v>      -0.00070594       0.00105345      -0.00134748 </v>
  </varray>
  <varray name="stress" >
   <v>      -4.61620471      -0.00764917      -0.00902868 </v>
   <v>      -0.00764917      -4.64038142      -0.01563746 </v>
   <v>      -0.00902867      -0.01563746      -2.28885752 </v>
  </varray>
  <energy>
   <i name="e_fr_energy">   -142.27453705 </i>
   <i name="e_wo_entrp">   -142.27251445 </i>
   <i name="e_0_energy">   -142.27352575 </i>
  </energy>
  <time name="totalsc">   21.88   22.04</time>
 </calculation>
 <calculation>
  <scstep>
   <time name="dav">    5.95    5.99</time>
   <time name="total">    6.23    6.29</time>
   <energy>
    <i name="alphaZ">     62.46528105 </i>
    <i name="ewald">   5342.00020731 </i>
    <i name="hartreedc">  -7391.37810255 </i>
    <i name="XCdc">    206.24834686 </i>
    <i name="pawpsdc">   6282.87677116 </i>
    <i name="pawaedc">  -6290.87619675 </i>
    <i name="eentropy">     -0.00202290 </i>
    <i name="bandstr">   -554.09447126 </i>
    <i name="atom">   2202.35892741 </i>
    <i name="e_fr_energy">   -140.40125966 </i>
    <i name="e_wo_entrp">   -140.39923677 </i>
    <i name="e_0_energy">   -140.40024822 </i>
   </energy>
  </scstep>
  <scstep>
   <time name="dav">    7.01    7.06</time>
   <time name="total">    7.05    7.09</time>
   <energy>
    <i name="alphaZ">     62.46528105 </i>
    <i name="ewald">   5342.00020731 </i>
    <i name="hartreedc">  -7391.37536836 </i>
    <i name="XCdc">    206.24836960 </i>
    <i name="pawpsdc">   6282.88448668 </i>
    <i name="pawaedc">  -6290.88390967 </i>
    <i name="eentropy">     -0.00202239 </i>
    <i name="bandstr">   -554.09723117 </i>
    <i name="atom">   2202.35892741 </i>
    <i name="e_fr_energy">   -140.40125955 </i>
    <i name="e_wo_entrp">   -140.39923715 </i>
    <i name="e_0_energy">   -140.40024835 </i>
   </energy>
  </scstep>
  <structure>
   <crystal>
    <varray name="basis" >
     <v>       4.37083021       2.52350000       0.00000000 </v>
     <v>      -4.37083021       2.52350000       0.00000000 </v>
     <v>       0.00000000       0.00000000      15.00000000 </v>
    </varray>
    <i name="volume">    330.89370127 </i>
[...]
       <r>     2.4493     1.5804    34.3437 </r>
       <r>     2.5526     1.7013    34.5195 </r>
       <r>     2.6560     1.4370    34.6680 </r>
       <r>     2.7593     0.9970    34.7710 </r>
       <r>     2.8626     1.1561    34.8905 </r>
       <r>     2.9660     1.3921    35.0343 </r>
       <r>     3.0693     1.6539    35.2052 </r>
       <r>     3.1727     1.9866    35.4105 </r>
       <r>     3.2760     1.7711    35.5936 </r>
       <r>     3.3793     1.1176    35.7090 </r>
       <r>     3.4827     0.9803    35.8103 </r>
       <r>     3.5860     1.7070    35.9867 </r>
       <r>     3.6894     1.5080    36.1426 </r>
       <r>     3.7927     1.1018    36.2564 </r>
       <r>     3.8960     1.7996    36.4424 </r>
       <r>     3.9994     2.3527    36.6855 </r>
       <r>     4.1027     2.0154    36.8938 </r>
       <r>     4.2060     1.8392    37.0839 </r>
       <r>     4.3094     1.7735    37.2671 </r>
       <r>     4.4127     1.9984    37.4736 </r>
       <r>     4.5161     1.7063    37.6500 </r>
       <r>     4.6194     1.7692    37.8328 </r>
       <r>     4.7227     1.9591    38.0352 </r>
       <r>     4.8261     2.3662    38.2798 </r>
       <r>     4.9294     2.4541    38.5334 </r>
       <r>     5.0327     2.3095    38.7720 </r>
       <r>     5.1361     2.0957    38.9886 </r>
       <r>     5.2394     1.9240    39.1874 </r>
       <r>     5.3428     1.9613    39.3901 </r>
       <r>     5.4461     2.5935    39.6581 </r>
       <r>     5.5494     2.3973    39.9058 </r>
       <r>     5.6528     1.8732    40.0994 </r>
       <r>     5.7561     2.1429    40.3208 </r>
       <r>     5.8594     3.2069    40.6522 </r>
       <r>     5.9628     2.8953    40.9514 </r>
       <r>     6.0661     3.2012    41.2822 </r>
       <r>     6.1695     3.5811    41.6523 </r>
       <r>     6.2728     3.3463    41.9981 </r>
       <r>     6.3761     3.1371    42.3223 </r>
       <r>     6.4795     2.5447    42.5852 </r>
       <r>     6.5828     2.6397    42.8580 </r>
       <r>     6.6862     3.7335    43.2438 </r>
       <r>     6.7895     4.0242    43.6597 </r>
       <r>     6.8928     3.7859    44.0509 </r>
       <r>     6.9962     4.3555    44.5010 </r>
       <r>     7.0995     4.1921    44.9342 </r>
       <r>     7.2028     3.8119    45.3281 </r>
       <r>     7.3062     4.4264    45.7855 </r>
       <r>     7.4095     4.6998    46.2712 </r>
       <r>     7.5129     3.6253    46.6458 </r>
       <r>     7.6162     2.9895    46.9548 </r>
       <r>     7.7195     3.5701    47.3237 </r>
       <r>     7.8229     2.4931    47.5813 </r>
       <r>     7.9262     1.8231    47.7697 </r>
       <r>     8.0295     1.2476    47.8987 </r>
       <r>     8.1329     0.4307    47.9432 </r>
       <r>     8.2362     0.2403    47.9680 </r>
       <r>     8.3396     0.2377    47.9926 </r>
       <r>     8.4429     0.0686    47.9996 </r>
       <r>     8.5462     0.0034    48.0000 </r>
       <r>     8.6496     0.0000    48.0000 </r>
       <r>     8.7529     0.0000    48.0000 </r>
       <r>     8.8563     0.0000    48.0000 </r>
       <r>     8.9596     0.0000    48.0000 </r>
       <r>     9.0629     0.0000    48.0000 </r>
       <r>     9.1663     0.0000    48.0000 </r>
       <r>     9.2696     0.0000    48.0000 </r>
       <r>     9.3729     0.0000    48.0000 </r>
       <r>     9.4763     0.0000    48.0000 </r>
       <r>     9.5796     0.0000    48.0000 </r>
       <r>     9.6830     0.0000    48.0000 </r>
      </set>
      <set comment="spin 2">
       <r>   -21.3185     0.0000     0.0000 </r>
       <r>   -21.2151     0.0000     0.0000 </r>
       <r>   -21.1118     0.0000     0.0000 </r>
       <r>   -21.0084     0.0000     0.0000 </r>
       <r>   -20.9051     0.0000     0.0000 </r>
       <r>   -20.8018     0.0000     0.0000 </r>
       <r>   -20.6984     0.0000     0.0000 </r>
       <r>   -20.5951     0.0000     0.0000 </r>
       <r>   -20.4918     0.0000     0.0000 </r>
       <r>   -20.3884     0.0000     0.0000 </r>
       <r>   -20.2851     0.0000     0.0000 </r>
       <r>   -20.1817     0.0000     0.0000 </r>
       <r>   -20.0784     0.0012     0.0001 </r>
       <r>   -19.9751     0.0404     0.0043 </r>
       <r>   -19.8717     0.2728     0.0325 </r>
       <r>   -19.7684     0.5644     0.0908 </r>
       <r>   -19.6651     0.6287     0.1558 </r>
       <r>   -19.5617     0.6621     0.2242 </r>
       <r>   -19.4584     0.5959     0.2858 </r>
       <r>   -19.3550     0.7269     0.3609 </r>
       <r>   -19.2517     0.5484     0.4176 </r>
       <r>   -19.1484     0.6736     0.4872 </r>
       <r>   -19.0450     0.7569     0.5654 </r>
       <r>   -18.9417     0.4700     0.6140 </r>
       <r>   -18.8383     0.6812     0.6844 </r>
       <r>   -18.7350     0.8151     0.7686 </r>
       <r>   -18.6317     0.5692     0.8274 </r>
       <r>   -18.5283     0.4348     0.8723 </r>
       <r>   -18.4250     0.8634     0.9616 </r>
       <r>   -18.3217     0.7709     1.0412 </r>
       <r>   -18.2183     0.5436     1.0974 </r>
       <r>   -18.1150     0.4329     1.1421 </r>
       <r>   -18.0116     0.8307     1.2280 </r>
       <r>   -17.9083     1.3768     1.3702 </r>
       <r>   -17.8050     1.3765     1.5125 </r>
       <r>   -17.7016     1.4009     1.6573 </r>
       <r>   -17.5983     1.6308     1.8258 </r>
       <r>   -17.4950     2.0534     2.0380 </r>
       <r>   -17.3916     2.4999     2.2963 </r>
       <r>   -17.2883     2.6423     2.5694 </r>
       <r>   -17.1849     1.6067     2.7354 </r>
       <r>   -17.0816     0.7890     2.8169 </r>
       <r>   -16.9783     0.9379     2.9139 </r>
       <r>   -16.8749     0.8688     3.0036 </r>
       <r>   -16.7716     0.7112     3.0771 </r>
       <r>   -16.6682     0.5893     3.1380 </r>
       <r>   -16.5649     0.3509     3.1743 </r>
       <r>   -16.4616     0.5523     3.2314 </r>
       <r>   -16.3582     1.1868     3.3540 </r>
       <r>   -16.2549     0.8142     3.4381 </r>
       <r>   -16.1516     0.6150     3.5017 </r>
       <r>   -16.0482     0.5530     3.5588 </r>
       <r>   -15.9449     0.5383     3.6145 </r>
       <r>   -15.8415     0.4821     3.6643 </r>
       <r>   -15.7382     1.1045     3.7784 </r>
       <r>   -15.6349     1.3811     3.9211 </r>
       <r>   -15.5315     1.5261     4.0788 </r>
       <r>   -15.4282     1.9609     4.2815 </r>
       <r>   -15.3249     2.0486     4.4932 </r>
       <r>   -15.2215     1.6691     4.6657 </r>
       <r>   -15.1182     1.8869     4.8606 </r>
       <r>   -15.0148     2.2671     5.0949 </r>
       <r>   -14.9115     2.0678     5.3086 </r>
       <r>   -14.8082     1.6235     5.4764 </r>
       <r>   -14.7048     1.2239     5.6028 </r>
       <r>   -14.6015     1.2673     5.7338 </r>
       <r>   -14.4981     2.0122     5.9417 </r>
       <r>   -14.3948     2.4141     6.1912 </r>
       <r>   -14.2915     1.9375     6.3914 </r>
       <r>   -14.1881     1.3934     6.5354 </r>
       <r>   -14.0848     1.1449     6.6537 </r>
       <r>   -13.9815     1.0226     6.7594 </r>
       <r>   -13.8781     1.1401     6.8772 </r>
       <r>   -13.7748     0.9050     6.9708 </r>
       <r>   -13.6714     0.5027     7.0227 </r>
       <r>   -13.5681     0.5965     7.0843 </r>
       <r>   -13.4648     0.5686     7.1431 </r>
       <r>   -13.3614     0.7743     7.2231 </r>
       <r>   -13.2581     0.7672     7.3024 </r>
       <r>   -13.1548     0.8029     7.3854 </r>
       <r>   -13.0514     1.0454     7.4934 </r>
       <r>   -12.9481     0.9645     7.5931 </r>
       <r>   -12.8447     1.0763     7.7043 </r>
       <r>   -12.7414     0.7690     7.7837 </r>
       <r>   -12.6381     0.8673     7.8734 </r>
       <r>   -12.5347     0.6908     7.9448 </r>
       <r>   -12.4314     0.5139     7.9979 </r>
       <r>   -12.3280     1.0775     8.1092 </r>
       <r>   -12.2247     0.7952     8.1914 </r>
       <r>   -12.1214     0.6533     8.2589 </r>
       <r>   -12.0180     1.2431     8.3874 </r>
       <r>   -11.9147     1.9408     8.5879 </r>
       <r>   -11.8114     2.0248     8.7972 </r>
       <r>   -11.7080     1.7713     8.9802 </r>
       <r>   -11.6047     1.8730     9.1738 </r>
       <r>   -11.5013     2.2185     9.4030 </r>
       <r>   -11.3980     1.5873     9.5670 </r>
       <r>   -11.2947     1.2221     9.6933 </r>
       <r>   -11.1913     1.1978     9.8171 </r>
       <r>   -11.0880     1.3966     9.9614 </r>
       <r>   -10.9847     1.1833    10.0837 </r>
       <r>   -10.8813     0.8699    10.1736 </r>
       <r>   -10.7780     1.5632    10.3351 </r>
       <r>   -10.6746     2.0073    10.5426 </r>
       <r>   -10.5713     1.5174    10.6994 </r>
       <r>   -10.4680     0.8717    10.7895 </r>
       <r>   -10.3646     1.2539    10.9190 </r>
       <r>   -10.2613     2.2644    11.1530 </r>
       <r>   -10.1579     2.1815    11.3785 </r>
       <r>   -10.0546     1.3481    11.5178 </r>
       <r>    -9.9513     1.2225    11.6441 </r>
       <r>    -9.8479     1.2005    11.7682 </r>
       <r>    -9.7446     1.4997    11.9231 </r>
       <r>    -9.6413     1.0841    12.0351 </r>
       <r>    -9.5379     1.4219    12.1821 </r>
       <r>    -9.4346     1.4056    12.3273 </r>
       <r>    -9.3312     1.3566    12.4675 </r>
       <r>    -9.2279     1.2451    12.5962 </r>
       <r>    -9.1246     0.3990    12.6374 </r>
       <r>    -9.0212     0.2549    12.6638 </r>
       <r>    -8.9179     1.4294    12.8115 </r>
       <r>    -8.8146     2.5136    13.0712 </r>
       <r>    -8.7112     2.1843    13.2969 </r>
       <r>    -8.6079     1.3200    13.4334 </r>
       <r>    -8.5045     0.9909    13.5357 </r>
       <r>    -8.4012     1.1451    13.6541 </r>
       <r>    -8.2979     1.7208    13.8319 </r>
       <r>    -8.1945     3.1509    14.1575 </r>
       <r>    -8.0912     2.8755    14.4547 </r>
       <r>    -7.9879     2.4521    14.7081 </r>
       <r>    -7.8845     1.9385    14.9084 </r>
       <r>    -7.7812     1.7143    15.0855 </r>
       <r>    -7.6778     2.6759    15.3621 </r>
       <r>    -7.5745     3.2558    15.6985 </r>
       <r>    -7.4712     3.0187    16.0105 </r>
       <r>    -7.3678     2.8866    16.3087 </r>
       <r>    -7.2645     3.2967    16.6494 </r>
       <r>    -7.1611     2.9554    16.9548 </r>
       <r>    -7.0578     3.2774    17.2935 </r>
       <r>    -6.9545     3.1434    17.6183 </r>
       <r>    -6.8511     2.2655    17.8524 </r>
       <r>    -6.7478     3.0272    18.1653 </r>
       <r>    -6.6445     3.4037    18.5170 </r>
       <r>    -6.5411     2.9158    18.8183 </r>
       <r>    -6.4378     3.1509    19.1439 </r>
       <r>    -6.3344     2.9772    19.4516 </r>
       <r>    -6.2311     3.2158    19.7839 </r>
       <r>    -6.1278     2.4435    20.0364 </r>
       <r>    -6.0244     2.0441    20.2477 </r>
       <r>    -5.9211     2.5790    20.5142 </r>
       <r>    -5.8178     3.3593    20.8613 </r>
       <r>    -5.7144     2.8070    21.1514 </r>
       <r>    -5.6111     2.2766    21.3866 </r>
       <r>    -5.5077     2.8139    21.6774 </r>
       <r>    -5.4044     3.4301    22.0319 </r>
       <r>    -5.3011     3.6589    22.4100 </r>
       <r>    -5.1977     2.5426    22.6727 </r>
       <r>    -5.0944     1.6245    22.8406 </r>
       <r>    -4.9910     2.0323    23.0506 </r>
       <r>    -4.8877     2.3576    23.2943 </r>
       <r>    -4.7844     2.1395    23.5153 </r>
       <r>    -4.6810     2.1504    23.7376 </r>
       <r>    -4.5777     2.2334    23.9684 </r>
       <r>    -4.4744     2.0766    24.1829 </r>
       <r>    -4.3710     2.4021    24.4312 </r>
       <r>    -4.2677     2.9593    24.7370 </r>
       <r>    -4.1643     4.0473    25.1552 </r>
       <r>    -4.0610     5.1916    25.6917 </r>
       <r>    -3.9577     4.1731    26.1229 </r>
       <r>    -3.8543     2.8374    26.4162 </r>
       <r>    -3.7510     1.9312    26.6157 </r>
       <r>    -3.6477     1.9760    26.8199 </r>
       <r>    -3.5443     2.1357    27.0406 </r>
       <r>    -3.4410     2.6776    27.3173 </r>
       <r>    -3.3376     2.6350    27.5896 </r>
       <r>    -3.2343     1.7779    27.7733 </r>
       <r>    -3.1310     1.6934    27.9483 </r>
       <r>    -3.0276     2.4011    28.1964 </r>
       <r>    -2.9243     3.3210    28.5396 </r>
       <r>    -2.8209     2.4568    28.7935 </r>
       <r>    -2.7176     1.3057    28.9285 </r>
       <r>    -2.6143     1.6896    29.1030 </r>
       <r>    -2.5109     2.7549    29.3877 </r>
       <r>    -2.4076     2.5591    29.6522 </r>
       <r>    -2.3043     2.4111    29.9013 </r>
       <r>    -2.2009     3.0177    30.2132 </r>
       <r>    -2.0976     2.0683    30.4269 </r>
       <r>    -1.9942     0.5850    30.4874 </r>
       <r>    -1.8909     0.7411    30.5640 </r>
       <r>    -1.7876     0.9447    30.6616 </r>
       <r>    -1.6842     0.6815    30.7320 </r>
       <r>    -1.5809     0.8649    30.8214 </r>
       <r>    -1.4776     0.7776    30.9017 </r>
       <r>    -1.3742     0.5111    30.9545 </r>
       <r>    -1.2709     0.2541    30.9808 </r>
       <r>    -1.1675     0.0500    30.9860 </r>
       <r>    -1.0642     0.0353    30.9896 </r>
       <r>    -0.9609     0.1673    31.0069 </r>
       <r>    -0.8575     0.3287    31.0409 </r>
       <r>    -0.7542     0.4161    31.0839 </r>
       <r>    -0.6508     0.5818    31.1440 </r>
       <r>    -0.5475     1.1439    31.2622 </r>
       <r>    -0.4442     1.2202    31.3883 </r>
       <r>    -0.3408     1.1800    31.5102 </r>
       <r>    -0.2375     1.2670    31.6412 </r>
       <r>    -0.1342     1.3730    31.7831 </r>
       <r>    -0.0308     1.2664    31.9139 </r>
       <r>     0.0725     0.4553    31.9610 </r>
       <r>     0.1759     0.6583    32.0290 </r>
       <r>     0.2792     1.2752    32.1608 </r>
       <r>     0.3825     1.0117    32.2653 </r>
       <r>     0.4859     0.8128    32.3493 </r>
       <r>     0.5892     1.0090    32.4536 </r>
       <r>     0.6925     1.3578    32.5939 </r>
       <r>     0.7959     1.2019    32.7181 </r>
       <r>     0.8992     1.3690    32.8596 </r>
       <r>     1.0026     1.0595    32.9691 </r>
       <r>     1.1059     0.5814    33.0291 </r>
       <r>     1.2092     0.7281    33.1044 </r>
       <r>     1.3126     0.6221    33.1687 </r>
       <r>     1.4159     0.5312    33.2236 </r>
       <r>     1.5193     0.5319    33.2785 </r>
       <r>     1.6226     1.2859    33.4114 </r>
       <r>     1.7259     1.3925    33.5553 </r>
       <r>     1.8293     0.4114    33.5978 </r>
       <r>     1.9326     0.4700    33.6464 </r>
       <r>     2.0359     0.6797    33.7166 </r>
       <r>     2.1393     0.8323    33.8026 </r>
       <r>     2.2426     1.7196    33.9803 </r>
       <r>     2.3460     1.9358    34.1804 </r>
       <r>     2.4493     1.5804    34.3437 </r>
       <r>     2.5526     1.7013    34.5195 </r>
       <r>     2.6560     1.4370    34.6680 </r>
       <r>     2.7593     0.9970    34.7710 </r>
       <r>     2.8626     1.1561    34.8905 </r>
       <r>     2.9660     1.3921    35.0343 </r>
       <r>     3.0693     1.6539    35.2052 </r>
       <r>     3.1727     1.9866    35.4105 </r>
       <r>     3.2760     1.7711    35.5936 </r>
       <r>     3.3793     1.1176    35.7090 </r>
       <r>     3.4827     0.9803    35.8103 </r>
       <r>     3.5860     1.7070    35.9867 </r>
       <r>     3.6894     1.5080    36.1426 </r>
       <r>     3.7927     1.1018    36.2564 </r>
       <r>     3.8960     1.7996    36.4424 </r>
       <r>     3.9994     2.3527    36.6855 </r>
       <r>     4.1027     2.0154    36.8938 </r>
       <r>     4.2060     1.8392    37.0839 </r>
       <r>     4.3094     1.7735    37.2671 </r>
       <r>     4.4127     1.9984    37.4736 </r>
       <r>     4.5161     1.7063    37.6500 </r>
       <r>     4.6194     1.7692    37.8328 </r>
       <r>     4.7227     1.9590    38.0352 </r>
       <r>     4.8261     2.3662    38.2797 </r>
       <r>     4.9294     2.4541    38.5333 </r>
       <r>     5.0327     2.3095    38.7720 </r>
       <r>     5.1361     2.0957    38.9886 </r>
       <r>     5.2394     1.9240    39.1874 </r>
       <r>     5.3428     1.9612    39.3901 </r>
       <r>     5.4461     2.5935    39.6581 </r>
       <r>     5.5494     2.3974    39.9058 </r>
       <r>     5.6528     1.8732    40.0994 </r>
       <r>     5.7561     2.1428    40.3208 </r>
       <r>     5.8594     3.2070    40.6522 </r>
       <r>     5.9628     2.8953    40.9514 </r>
       <r>     6.0661     3.2012    41.2822 </r>
       <r>     6.1695     3.5810    41.6523 </r>
       <r>     6.2728     3.3463    41.9981 </r>
       <r>     6.3761     3.1372    42.3223 </r>
       <r>     6.4795     2.5447    42.5852 </r>
       <r>     6.5828     2.6397    42.8580 </r>
       <r>     6.6862     3.7334    43.2438 </r>
       <r>     6.7895     4.0242    43.6597 </r>
       <r>     6.8928     3.7859    44.0509 </r>
       <r>     6.9962     4.3555    44.5010 </r>
       <r>     7.0995     4.1921    44.9342 </r>
       <r>     7.2028     3.8119    45.3281 </r>
       <r>     7.3062     4.4264    45.7855 </r>
       <r>     7.4095     4.6998    46.2712 </r>
       <r>     7.5129     3.6253    46.6458 </r>
       <r>     7.6162     2.9895    46.9548 </r>
       <r>     7.7195     3.5701    47.3237 </r>
       <r>     7.8229     2.4932    47.5813 </r>
       <r>     7.9262     1.8231    47.7697 </r>
       <r>     8.0295     1.2476    47.8986 </r>
       <r>     8.1329     0.4307    47.9432 </r>
       <r>     8.2362     0.2403    47.9680 </r>
       <r>     8.3396     0.2377    47.9926 </r>
       <r>     8.4429     0.0686    47.9996 </r>
       <r>     8.5462     0.0034    48.0000 </r>
       <r>     8.6496     0.0000    48.0000 </r>
       <r>     8.7529     0.0000    48.0000 </r>
       <r>     8.8563     0.0000    48.0000 </r>
       <r>     8.9596     0.0000    48.0000 </r>
       <r>     9.0629     0.0000    48.0000 </r>
       <r>     9.1663     0.0000    48.0000 </r>
       <r>     9.2696     0.0000    48.0000 </r>
       <r>     9.3729     0.0000    48.0000 </r>
       <r>     9.4763     0.0000    48.0000 </r>
       <r>     9.5796     0.0000    48.0000 </r>
       <r>     9.6830     0.0000    48.0000 </r>
      </set>
     </set>
    </array>
   </total>
  </dos>
 </calculation>
 <structure name="finalpos" >
  <crystal>
   <varray name="basis" >
    <v>       4.37083021       2.52350000       0.00000000 </v>
    <v>      -4.37083021       2.52350000       0.00000000 </v>
    <v>       0.00000000       0.00000000      15.00000000 </v>
   </varray>
   <i name="volume">    330.89370127 </i>
   <varray name="rec_basis" >
    <v>       0.11439474       0.19813751       0.00000000 </v>
    <v>      -0.11439474       0.19813751       0.00000000 </v>
    <v>       0.00000000       0.00000000       0.06666667 </v>
   </varray>
  </crystal>
  <varray name="positions" >
   <v>       0.33833461       0.66916729       0.10023342 </v>
   <v>       0.67166764       0.33583365       0.10023341 </v>
   <v>       0.16460645       0.32170669       0.09990891 </v>
   <v>       0.32421011       0.16210520       0.09990796 </v>
   <v>       0.16460756       0.84290033       0.09990890 </v>
   <v>       0.84540307       0.16210259       0.09991038 </v>
   <v>       0.68580350       0.84290079       0.09991095 </v>
   <v>       0.84540439       0.68329975       0.09991038 </v>
   <v>       0.16656427       0.33313580       0.32888478 </v>
   <v>       0.33313317       0.16656638       0.32888590 </v>
   <v>       0.16656428       0.83342807       0.32888478 </v>
   <v>       0.33332651       0.66666306       0.32858718 </v>
   <v>       0.66665989       0.33332974       0.32858718 </v>
   <v>       0.83342552       0.16656697       0.32888238 </v>
   <v>       0.66685552       0.83342755       0.32888109 </v>
   <v>       0.83342551       0.66685813       0.32888238 </v>
  </varray>
 </structure>
</modeling>
