  16  16   0   4
  0.2065628E+02  0.5044000E-09  0.5044000E-09  0.1500000E-08  0.5000000E-15
  1.000000000000000E-004
  CAR 
 Lattice                                 
      9.75496778    -21.29826976  301     -0.97301446      1.00000000
    -21.298  0.0000E+00  0.0000E+00
    -21.195  0.0000E+00  0.0000E+00
    -21.091  0.0000E+00  0.0000E+00
    -20.988  0.0000E+00  0.0000E+00
    -20.884  0.0000E+00  0.0000E+00
    -20.781  0.0000E+00  0.0000E+00
    -20.677  0.0000E+00  0.0000E+00
    -20.574  0.0000E+00  0.0000E+00
    -20.470  0.2910E-19  0.3012E-20
    -20.367  0.3324E-14  0.3440E-15
    -20.263  0.3314E-10  0.3430E-11
    -20.160  0.4554E-07  0.4717E-08
    -20.056  0.9327E-05  0.9702E-06
    -19.953  0.3141E-03  0.3348E-04
    -19.849  0.2128E-02  0.2537E-03
    -19.746  0.4406E-02  0.7098E-03
    -19.642  0.4906E-02  0.1218E-02
    -19.539  0.5167E-02  0.1752E-02
    -19.435  0.4649E-02  0.2234E-02
    -19.332  0.5674E-02  0.2821E-02
    -19.228  0.4274E-02  0.3263E-02
    -19.125  0.5264E-02  0.3808E-02
    -19.021  0.5902E-02  0.4419E-02
    -18.918  0.3661E-02  0.4798E-02
    -18.814  0.5328E-02  0.5350E-02
    -18.710  0.6357E-02  0.6008E-02
    -18.607  0.4428E-02  0.6466E-02
    -18.503  0.3400E-02  0.6818E-02
    -18.400  0.6756E-02  0.7517E-02
    -18.296  0.5997E-02  0.8138E-02
    -18.193  0.4240E-02  0.8577E-02
    -18.089  0.3515E-02  0.8941E-02
    -17.986  0.7784E-02  0.9747E-02
    -17.882  0.1276E-01  0.1107E-01
    -17.779  0.1151E-01  0.1226E-01
    -17.675  0.1136E-01  0.1343E-01
    -17.572  0.1333E-01  0.1481E-01
    -17.468  0.1747E-01  0.1662E-01
    -17.365  0.2163E-01  0.1886E-01
    -17.261  0.1851E-01  0.2078E-01
    -17.158  0.7368E-02  0.2154E-01
    -17.054  0.4634E-02  0.2202E-01
    -16.951  0.7242E-02  0.2277E-01
    -16.847  0.6768E-02  0.2347E-01
    -16.744  0.5538E-02  0.2404E-01
    -16.640  0.4591E-02  0.2452E-01
    -16.537  0.2717E-02  0.2480E-01
    -16.433  0.4360E-02  0.2525E-01
    -16.330  0.9275E-02  0.2621E-01
    -16.226  0.6311E-02  0.2687E-01
    -16.123  0.4791E-02  0.2736E-01
    -16.019  0.4309E-02  0.2781E-01
    -15.916  0.4193E-02  0.2824E-01
    -15.812  0.3811E-02  0.2864E-01
    -15.709  0.9359E-02  0.2960E-01
    -15.605  0.1369E-01  0.3102E-01
    -15.502  0.1430E-01  0.3250E-01
    -15.398  0.1638E-01  0.3420E-01
    -15.295  0.1396E-01  0.3564E-01
    -15.191  0.1200E-01  0.3689E-01
    -15.088  0.1425E-01  0.3836E-01
    -14.984  0.1860E-01  0.4029E-01
    -14.881  0.1519E-01  0.4186E-01
    -14.777  0.1341E-01  0.4325E-01
    -14.674  0.9926E-02  0.4427E-01
    -14.570  0.1045E-01  0.4536E-01
    -14.467  0.1613E-01  0.4702E-01
    -14.363  0.2069E-01  0.4917E-01
    -14.260  0.1419E-01  0.5064E-01
    -14.156  0.9198E-02  0.5159E-01
    -14.053  0.7489E-02  0.5236E-01
    -13.949  0.8154E-02  0.5321E-01
    -13.845  0.7650E-02  0.5400E-01
    -13.742  0.5321E-02  0.5455E-01
    -13.638  0.3184E-02  0.5488E-01
    -13.535  0.4657E-02  0.5536E-01
    -13.431  0.4480E-02  0.5582E-01
    -13.328  0.6136E-02  0.5646E-01
    -13.224  0.5905E-02  0.5707E-01
    -13.121  0.6387E-02  0.5773E-01
    -13.017  0.8125E-02  0.5857E-01
    -12.914  0.7495E-02  0.5935E-01
    -12.810  0.8407E-02  0.6022E-01
    -12.707  0.5932E-02  0.6083E-01
    -12.603  0.6825E-02  0.6154E-01
    -12.500  0.5216E-02  0.6208E-01
    -12.396  0.4130E-02  0.6251E-01
    -12.293  0.8610E-02  0.6340E-01
    -12.189  0.6985E-02  0.6412E-01
    -12.086  0.6949E-02  0.6484E-01
    -11.982  0.1222E-01  0.6611E-01
    -11.879  0.1634E-01  0.6780E-01
    -11.775  0.1510E-01  0.6936E-01
    -11.672  0.1469E-01  0.7088E-01
    -11.568  0.1637E-01  0.7257E-01
    -11.465  0.1523E-01  0.7415E-01
    -11.361  0.8129E-02  0.7499E-01
    -11.258  0.9412E-02  0.7597E-01
    -11.154  0.1177E-01  0.7718E-01
    -11.051  0.1189E-01  0.7841E-01
    -10.947  0.6000E-02  0.7904E-01
    -10.844  0.5737E-02  0.7963E-01
    -10.740  0.1501E-01  0.8118E-01
    -10.637  0.1832E-01  0.8308E-01
    -10.533  0.8601E-02  0.8397E-01
    -10.430  0.6140E-02  0.8461E-01
    -10.326  0.1155E-01  0.8580E-01
    -10.223  0.1931E-01  0.8780E-01
    -10.119  0.1589E-01  0.8944E-01
    -10.016  0.8602E-02  0.9034E-01
     -9.912  0.8790E-02  0.9125E-01
     -9.809  0.1006E-01  0.9229E-01
     -9.705  0.1154E-01  0.9348E-01
     -9.602  0.8843E-02  0.9440E-01
     -9.498  0.1050E-01  0.9548E-01
     -9.395  0.9866E-02  0.9650E-01
     -9.291  0.9781E-02  0.9752E-01
     -9.188  0.9128E-02  0.9846E-01
     -9.084  0.3168E-02  0.9879E-01
     -8.980  0.5035E-02  0.9931E-01
     -8.877  0.1315E-01  0.1007E+00
     -8.773  0.1898E-01  0.1026E+00
     -8.670  0.1620E-01  0.1043E+00
     -8.566  0.8717E-02  0.1052E+00
     -8.463  0.8474E-02  0.1061E+00
     -8.359  0.1024E-01  0.1072E+00
     -8.256  0.1827E-01  0.1090E+00
     -8.152  0.2334E-01  0.1115E+00
     -8.049  0.2289E-01  0.1138E+00
     -7.945  0.1583E-01  0.1155E+00
     -7.842  0.1356E-01  0.1169E+00
     -7.738  0.1435E-01  0.1184E+00
     -7.635  0.2531E-01  0.1210E+00
     -7.531  0.2796E-01  0.1239E+00
     -7.428  0.2118E-01  0.1261E+00
     -7.324  0.2076E-01  0.1282E+00
     -7.221  0.2404E-01  0.1307E+00
     -7.117  0.2431E-01  0.1332E+00
     -7.014  0.2651E-01  0.1360E+00
     -6.910  0.2238E-01  0.1383E+00
     -6.807  0.2016E-01  0.1404E+00
     -6.703  0.2763E-01  0.1432E+00
     -6.600  0.2321E-01  0.1456E+00
     -6.496  0.2172E-01  0.1479E+00
     -6.393  0.2519E-01  0.1505E+00
     -6.289  0.2420E-01  0.1530E+00
     -6.186  0.2289E-01  0.1554E+00
     -6.082  0.1792E-01  0.1572E+00
     -5.979  0.1714E-01  0.1590E+00
     -5.875  0.2147E-01  0.1612E+00
     -5.772  0.2644E-01  0.1639E+00
     -5.668  0.2041E-01  0.1661E+00
     -5.565  0.1983E-01  0.1681E+00
     -5.461  0.2232E-01  0.1704E+00
     -5.358  0.2770E-01  0.1733E+00
     -5.254  0.2692E-01  0.1761E+00
     -5.151  0.1553E-01  0.1777E+00
     -5.047  0.1181E-01  0.1789E+00
     -4.944  0.1769E-01  0.1807E+00
     -4.840  0.1908E-01  0.1827E+00
     -4.737  0.1736E-01  0.1845E+00
     -4.633  0.1598E-01  0.1862E+00
     -4.530  0.1655E-01  0.1879E+00
     -4.426  0.1907E-01  0.1899E+00
     -4.322  0.2040E-01  0.1920E+00
     -4.219  0.2622E-01  0.1947E+00
     -4.115  0.4063E-01  0.1989E+00
     -4.012  0.3683E-01  0.2027E+00
     -3.908  0.2653E-01  0.2054E+00
     -3.805  0.1790E-01  0.2073E+00
     -3.701  0.1346E-01  0.2087E+00
     -3.598  0.1464E-01  0.2102E+00
     -3.494  0.1763E-01  0.2120E+00
     -3.391  0.2223E-01  0.2143E+00
     -3.287  0.1611E-01  0.2160E+00
     -3.184  0.1427E-01  0.2175E+00
     -3.080  0.1626E-01  0.2192E+00
     -2.977  0.1991E-01  0.2212E+00
     -2.873  0.2595E-01  0.2239E+00
     -2.770  0.1621E-01  0.2256E+00
     -2.666  0.1349E-01  0.2270E+00
     -2.563  0.2110E-01  0.2292E+00
     -2.459  0.2144E-01  0.2314E+00
     -2.356  0.1886E-01  0.2333E+00
     -2.252  0.2202E-01  0.2356E+00
     -2.149  0.1777E-01  0.2375E+00
     -2.045  0.5797E-02  0.2381E+00
     -1.942  0.3749E-02  0.2384E+00
     -1.838  0.8113E-02  0.2393E+00
     -1.735  0.5826E-02  0.2399E+00
     -1.631  0.4466E-02  0.2403E+00
     -1.528  0.7503E-02  0.2411E+00
     -1.424  0.5721E-02  0.2417E+00
     -1.321  0.2760E-02  0.2420E+00
     -1.217  0.7094E-03  0.2421E+00
     -1.114  0.7409E-04  0.2421E+00
     -1.010  0.4512E-03  0.2421E+00
     -0.907  0.2488E-02  0.2424E+00
     -0.803  0.3910E-02  0.2428E+00
     -0.700  0.4764E-02  0.2433E+00
     -0.596  0.9957E-02  0.2443E+00
     -0.493  0.1058E-01  0.2454E+00
     -0.389  0.9839E-02  0.2464E+00
     -0.286  0.1262E-01  0.2477E+00
     -0.182  0.1154E-01  0.2489E+00
     -0.079  0.6744E-02  0.2496E+00
      0.025  0.2678E-02  0.2499E+00
      0.128  0.8467E-03  0.2500E+00
      0.232  0.1028E-02  0.2501E+00
      0.335  0.5490E-02  0.2507E+00
      0.439  0.1010E-01  0.2517E+00
      0.543  0.8008E-02  0.2525E+00
      0.646  0.3561E-02  0.2529E+00
      0.750  0.5736E-02  0.2535E+00
      0.853  0.1211E-01  0.2548E+00
      0.957  0.1335E-01  0.2561E+00
      1.060  0.1161E-01  0.2573E+00
      1.164  0.5559E-02  0.2579E+00
      1.267  0.4621E-02  0.2584E+00
      1.371  0.5496E-02  0.2590E+00
      1.474  0.5149E-02  0.2595E+00
      1.578  0.6423E-02  0.2602E+00
      1.681  0.1046E-01  0.2612E+00
      1.785  0.9890E-02  0.2623E+00
      1.888  0.4050E-02  0.2627E+00
      1.992  0.2448E-02  0.2629E+00
      2.095  0.7521E-02  0.2637E+00
      2.199  0.1608E-01  0.2654E+00
      2.302  0.1462E-01  0.2669E+00
      2.406  0.1138E-01  0.2681E+00
      2.509  0.1162E-01  0.2693E+00
      2.613  0.1198E-01  0.2705E+00
      2.716  0.1125E-01  0.2717E+00
      2.820  0.7687E-02  0.2725E+00
      2.923  0.7247E-02  0.2732E+00
      3.027  0.1265E-01  0.2745E+00
      3.130  0.1335E-01  0.2759E+00
      3.234  0.1359E-01  0.2773E+00
      3.337  0.1241E-01  0.2786E+00
      3.441  0.7843E-02  0.2794E+00
      3.544  0.1025E-01  0.2805E+00
      3.648  0.1289E-01  0.2818E+00
      3.751  0.1014E-01  0.2829E+00
      3.855  0.1107E-01  0.2840E+00
      3.958  0.1779E-01  0.2859E+00
      4.062  0.1702E-01  0.2876E+00
      4.165  0.1224E-01  0.2889E+00
      4.269  0.1564E-01  0.2905E+00
      4.372  0.1745E-01  0.2923E+00
      4.476  0.1335E-01  0.2937E+00
      4.579  0.1376E-01  0.2951E+00
      4.683  0.1291E-01  0.2964E+00
      4.786  0.1611E-01  0.2981E+00
      4.890  0.1800E-01  0.3000E+00
      4.993  0.2005E-01  0.3021E+00
      5.097  0.1794E-01  0.3039E+00
      5.200  0.1608E-01  0.3056E+00
      5.304  0.1443E-01  0.3071E+00
      5.408  0.1838E-01  0.3090E+00
      5.511  0.1961E-01  0.3110E+00
      5.615  0.1523E-01  0.3126E+00
      5.718  0.1466E-01  0.3141E+00
      5.822  0.1815E-01  0.3160E+00
      5.925  0.2283E-01  0.3183E+00
      6.029  0.2474E-01  0.3209E+00
      6.132  0.2852E-01  0.3238E+00
      6.236  0.2675E-01  0.3266E+00
      6.339  0.2489E-01  0.3292E+00
      6.443  0.2113E-01  0.3314E+00
      6.546  0.1704E-01  0.3331E+00
      6.650  0.2613E-01  0.3358E+00
      6.753  0.3376E-01  0.3393E+00
      6.857  0.2884E-01  0.3423E+00
      6.960  0.2933E-01  0.3454E+00
      7.064  0.3370E-01  0.3489E+00
      7.167  0.3154E-01  0.3521E+00
      7.271  0.2791E-01  0.3550E+00
      7.374  0.3776E-01  0.3589E+00
      7.478  0.3511E-01  0.3625E+00
      7.581  0.2487E-01  0.3651E+00
      7.685  0.2614E-01  0.3678E+00
      7.788  0.2644E-01  0.3706E+00
      7.892  0.1887E-01  0.3725E+00
      7.995  0.1237E-01  0.3738E+00
      8.099  0.6205E-02  0.3744E+00
      8.202  0.1848E-02  0.3746E+00
      8.306  0.1297E-02  0.3748E+00
      8.409  0.1687E-02  0.3749E+00
      8.513  0.5261E-03  0.3750E+00
      8.616  0.2583E-04  0.3750E+00
      8.720  0.1777E-06  0.3750E+00
      8.823  0.1592E-09  0.3750E+00
      8.927  0.1784E-13  0.3750E+00
      9.030  0.0000E+00  0.3750E+00
      9.134  0.0000E+00  0.3750E+00
      9.237  0.0000E+00  0.3750E+00
      9.341  0.0000E+00  0.3750E+00
      9.444  0.0000E+00  0.3750E+00
      9.548  0.0000E+00  0.3750E+00
      9.651  0.0000E+00  0.3750E+00
      9.755  0.0000E+00  0.3750E+00
