  15  15   0   4
  0.2032071E+02  0.4844000E-09  0.4844000E-09  0.1500000E-08  0.5000000E-15
  1.000000000000000E-004
  CAR 
 Lattice                                 
     10.31491301    -21.67194577  301     -0.28471592      1.00000000
    -21.672  0.0000E+00  0.0000E+00  0.0000E+00  0.0000E+00
    -21.565  0.0000E+00  0.0000E+00  0.0000E+00  0.0000E+00
    -21.459  0.0000E+00  0.0000E+00  0.0000E+00  0.0000E+00
    -21.352  0.0000E+00  0.0000E+00  0.0000E+00  0.0000E+00
    -21.245  0.0000E+00  0.0000E+00  0.0000E+00  0.0000E+00
    -21.139  0.0000E+00  0.0000E+00  0.0000E+00  0.0000E+00
    -21.032  0.0000E+00  0.0000E+00  0.0000E+00  0.0000E+00
    -20.926  0.0000E+00  0.0000E+00  0.0000E+00  0.0000E+00
    -20.819  0.0000E+00  0.0000E+00  0.0000E+00  0.0000E+00
    -20.712  0.7429E-15  0.7429E-15  0.7921E-16  0.7921E-16
    -20.606  0.1244E-10  0.1244E-10  0.1326E-11  0.1326E-11
    -20.499  0.2517E-07  0.2517E-07  0.2685E-08  0.2685E-08
    -20.392  0.6775E-05  0.6775E-05  0.7250E-06  0.7250E-06
    -20.286  0.2709E-03  0.2709E-03  0.2961E-04  0.2961E-04
    -20.179  0.1970E-02  0.1970E-02  0.2397E-03  0.2397E-03
    -20.073  0.4144E-02  0.4144E-02  0.6816E-03  0.6816E-03
    -19.966  0.4512E-02  0.4512E-02  0.1163E-02  0.1163E-02
    -19.859  0.4932E-02  0.4932E-02  0.1689E-02  0.1689E-02
    -19.753  0.4147E-02  0.4147E-02  0.2131E-02  0.2131E-02
    -19.646  0.5368E-02  0.5368E-02  0.2703E-02  0.2703E-02
    -19.539  0.4234E-02  0.4234E-02  0.3154E-02  0.3154E-02
    -19.433  0.4214E-02  0.4214E-02  0.3604E-02  0.3604E-02
    -19.326  0.6005E-02  0.6005E-02  0.4244E-02  0.4244E-02
    -19.220  0.3857E-02  0.3857E-02  0.4655E-02  0.4655E-02
    -19.113  0.3817E-02  0.3817E-02  0.5062E-02  0.5062E-02
    -19.006  0.6090E-02  0.6090E-02  0.5712E-02  0.5712E-02
    -18.900  0.5250E-02  0.5250E-02  0.6271E-02  0.6271E-02
    -18.793  0.3005E-02  0.3005E-02  0.6592E-02  0.6592E-02
    -18.687  0.4235E-02  0.4235E-02  0.7043E-02  0.7043E-02
    -18.580  0.6923E-02  0.6923E-02  0.7781E-02  0.7781E-02
    -18.473  0.4635E-02  0.4635E-02  0.8276E-02  0.8276E-02
    -18.367  0.3817E-02  0.3817E-02  0.8683E-02  0.8683E-02
    -18.260  0.2930E-02  0.2930E-02  0.8995E-02  0.8995E-02
    -18.153  0.6458E-02  0.6458E-02  0.9684E-02  0.9684E-02
    -18.047  0.6723E-02  0.6723E-02  0.1040E-01  0.1040E-01
    -17.940  0.3650E-02  0.3650E-02  0.1079E-01  0.1079E-01
    -17.834  0.3209E-02  0.3209E-02  0.1113E-01  0.1113E-01
    -17.727  0.4066E-02  0.4066E-02  0.1157E-01  0.1157E-01
    -17.620  0.6052E-02  0.6052E-02  0.1221E-01  0.1221E-01
    -17.514  0.6956E-02  0.6956E-02  0.1295E-01  0.1295E-01
    -17.407  0.6573E-02  0.6573E-02  0.1365E-01  0.1365E-01
    -17.300  0.7984E-02  0.7984E-02  0.1450E-01  0.1450E-01
    -17.194  0.1044E-01  0.1044E-01  0.1562E-01  0.1562E-01
    -17.087  0.1479E-01  0.1479E-01  0.1719E-01  0.1719E-01
    -16.981  0.1636E-01  0.1636E-01  0.1894E-01  0.1894E-01
    -16.874  0.1886E-01  0.1886E-01  0.2095E-01  0.2095E-01
    -16.767  0.2115E-01  0.2115E-01  0.2320E-01  0.2320E-01
    -16.661  0.1267E-01  0.1267E-01  0.2455E-01  0.2455E-01
    -16.554  0.3188E-02  0.3188E-02  0.2489E-01  0.2489E-01
    -16.447  0.6627E-02  0.6627E-02  0.2560E-01  0.2560E-01
    -16.341  0.8448E-02  0.8448E-02  0.2650E-01  0.2650E-01
    -16.234  0.4670E-02  0.4670E-02  0.2700E-01  0.2700E-01
    -16.128  0.4199E-02  0.4199E-02  0.2745E-01  0.2745E-01
    -16.021  0.3814E-02  0.3814E-02  0.2785E-01  0.2785E-01
    -15.914  0.3919E-02  0.3919E-02  0.2827E-01  0.2827E-01
    -15.808  0.3424E-02  0.3424E-02  0.2864E-01  0.2864E-01
    -15.701  0.7665E-02  0.7665E-02  0.2945E-01  0.2945E-01
    -15.594  0.8424E-02  0.8424E-02  0.3035E-01  0.3035E-01
    -15.488  0.4142E-02  0.4142E-02  0.3079E-01  0.3079E-01
    -15.381  0.3868E-02  0.3868E-02  0.3121E-01  0.3121E-01
    -15.275  0.3335E-02  0.3335E-02  0.3156E-01  0.3156E-01
    -15.168  0.4469E-02  0.4469E-02  0.3204E-01  0.3204E-01
    -15.061  0.6342E-02  0.6342E-02  0.3272E-01  0.3272E-01
    -14.955  0.1224E-01  0.1224E-01  0.3402E-01  0.3402E-01
    -14.848  0.1851E-01  0.1851E-01  0.3599E-01  0.3599E-01
    -14.741  0.1901E-01  0.1901E-01  0.3802E-01  0.3802E-01
    -14.635  0.1621E-01  0.1621E-01  0.3975E-01  0.3975E-01
    -14.528  0.1066E-01  0.1066E-01  0.4089E-01  0.4089E-01
    -14.422  0.8120E-02  0.8120E-02  0.4175E-01  0.4175E-01
    -14.315  0.1357E-01  0.1357E-01  0.4320E-01  0.4320E-01
    -14.208  0.1602E-01  0.1602E-01  0.4491E-01  0.4491E-01
    -14.102  0.1286E-01  0.1286E-01  0.4628E-01  0.4628E-01
    -13.995  0.1059E-01  0.1059E-01  0.4741E-01  0.4741E-01
    -13.888  0.1391E-01  0.1391E-01  0.4889E-01  0.4889E-01
    -13.782  0.1934E-01  0.1934E-01  0.5095E-01  0.5095E-01
    -13.675  0.1820E-01  0.1820E-01  0.5289E-01  0.5289E-01
    -13.569  0.1726E-01  0.1726E-01  0.5473E-01  0.5473E-01
    -13.462  0.9767E-02  0.9767E-02  0.5578E-01  0.5578E-01
    -13.355  0.6003E-02  0.6003E-02  0.5642E-01  0.5642E-01
    -13.249  0.3421E-02  0.3421E-02  0.5678E-01  0.5678E-01
    -13.142  0.3708E-02  0.3708E-02  0.5718E-01  0.5718E-01
    -13.035  0.6470E-02  0.6470E-02  0.5787E-01  0.5787E-01
    -12.929  0.7213E-02  0.7213E-02  0.5863E-01  0.5863E-01
    -12.822  0.4842E-02  0.4842E-02  0.5915E-01  0.5915E-01
    -12.716  0.6367E-02  0.6367E-02  0.5983E-01  0.5983E-01
    -12.609  0.7239E-02  0.7239E-02  0.6060E-01  0.6060E-01
    -12.502  0.5667E-02  0.5667E-02  0.6121E-01  0.6121E-01
    -12.396  0.5539E-02  0.5539E-02  0.6180E-01  0.6180E-01
    -12.289  0.3537E-02  0.3537E-02  0.6217E-01  0.6217E-01
    -12.183  0.5514E-02  0.5514E-02  0.6276E-01  0.6276E-01
    -12.076  0.8393E-02  0.8393E-02  0.6366E-01  0.6366E-01
    -11.969  0.3973E-02  0.3973E-02  0.6408E-01  0.6408E-01
    -11.863  0.3153E-02  0.3153E-02  0.6442E-01  0.6442E-01
    -11.756  0.3405E-02  0.3405E-02  0.6478E-01  0.6478E-01
    -11.649  0.5299E-02  0.5299E-02  0.6534E-01  0.6534E-01
    -11.543  0.7011E-02  0.7011E-02  0.6609E-01  0.6609E-01
    -11.436  0.4464E-02  0.4464E-02  0.6657E-01  0.6657E-01
    -11.330  0.1801E-02  0.1801E-02  0.6676E-01  0.6676E-01
    -11.223  0.4171E-02  0.4171E-02  0.6720E-01  0.6720E-01
    -11.116  0.5834E-02  0.5834E-02  0.6783E-01  0.6783E-01
    -11.010  0.5252E-02  0.5252E-02  0.6839E-01  0.6839E-01
    -10.903  0.7125E-02  0.7125E-02  0.6915E-01  0.6915E-01
    -10.796  0.7103E-02  0.7103E-02  0.6990E-01  0.6990E-01
    -10.690  0.2961E-02  0.2961E-02  0.7022E-01  0.7022E-01
    -10.583  0.8056E-02  0.8056E-02  0.7108E-01  0.7108E-01
    -10.477  0.1361E-01  0.1361E-01  0.7253E-01  0.7253E-01
    -10.370  0.1523E-01  0.1523E-01  0.7415E-01  0.7415E-01
    -10.263  0.1522E-01  0.1522E-01  0.7578E-01  0.7578E-01
    -10.157  0.1554E-01  0.1554E-01  0.7743E-01  0.7743E-01
    -10.050  0.1738E-01  0.1738E-01  0.7929E-01  0.7929E-01
     -9.943  0.1656E-01  0.1656E-01  0.8105E-01  0.8105E-01
     -9.837  0.1025E-01  0.1025E-01  0.8214E-01  0.8214E-01
     -9.730  0.9401E-02  0.9401E-02  0.8315E-01  0.8315E-01
     -9.624  0.1360E-01  0.1360E-01  0.8460E-01  0.8460E-01
     -9.517  0.1220E-01  0.1220E-01  0.8590E-01  0.8590E-01
     -9.410  0.1642E-01  0.1642E-01  0.8765E-01  0.8765E-01
     -9.304  0.1869E-01  0.1869E-01  0.8964E-01  0.8964E-01
     -9.197  0.1368E-01  0.1368E-01  0.9110E-01  0.9110E-01
     -9.090  0.9378E-02  0.9378E-02  0.9210E-01  0.9210E-01
     -8.984  0.6854E-02  0.6854E-02  0.9283E-01  0.9283E-01
     -8.877  0.1667E-01  0.1667E-01  0.9461E-01  0.9461E-01
     -8.771  0.2121E-01  0.2121E-01  0.9687E-01  0.9687E-01
     -8.664  0.1340E-01  0.1340E-01  0.9830E-01  0.9830E-01
     -8.557  0.8017E-02  0.8017E-02  0.9915E-01  0.9915E-01
     -8.451  0.1174E-01  0.1174E-01  0.1004E+00  0.1004E+00
     -8.344  0.1947E-01  0.1947E-01  0.1025E+00  0.1025E+00
     -8.237  0.1758E-01  0.1758E-01  0.1044E+00  0.1044E+00
     -8.131  0.1271E-01  0.1271E-01  0.1057E+00  0.1057E+00
     -8.024  0.1699E-01  0.1699E-01  0.1075E+00  0.1075E+00
     -7.918  0.2354E-01  0.2354E-01  0.1100E+00  0.1100E+00
     -7.811  0.2453E-01  0.2453E-01  0.1126E+00  0.1126E+00
     -7.704  0.1958E-01  0.1958E-01  0.1147E+00  0.1147E+00
     -7.598  0.1118E-01  0.1118E-01  0.1159E+00  0.1159E+00
     -7.491  0.7114E-02  0.7114E-02  0.1167E+00  0.1167E+00
     -7.384  0.1671E-01  0.1671E-01  0.1185E+00  0.1185E+00
     -7.278  0.1875E-01  0.1875E-01  0.1205E+00  0.1205E+00
     -7.171  0.1298E-01  0.1298E-01  0.1218E+00  0.1218E+00
     -7.065  0.1098E-01  0.1098E-01  0.1230E+00  0.1230E+00
     -6.958  0.1580E-01  0.1580E-01  0.1247E+00  0.1247E+00
     -6.851  0.1818E-01  0.1818E-01  0.1266E+00  0.1266E+00
     -6.745  0.1949E-01  0.1949E-01  0.1287E+00  0.1287E+00
     -6.638  0.2235E-01  0.2235E-01  0.1311E+00  0.1311E+00
     -6.531  0.1926E-01  0.1926E-01  0.1332E+00  0.1332E+00
     -6.425  0.2148E-01  0.2148E-01  0.1354E+00  0.1354E+00
     -6.318  0.1751E-01  0.1751E-01  0.1373E+00  0.1373E+00
     -6.212  0.1824E-01  0.1824E-01  0.1393E+00  0.1393E+00
     -6.105  0.2604E-01  0.2604E-01  0.1420E+00  0.1420E+00
     -5.998  0.2441E-01  0.2441E-01  0.1446E+00  0.1446E+00
     -5.892  0.3067E-01  0.3067E-01  0.1479E+00  0.1479E+00
     -5.785  0.2686E-01  0.2686E-01  0.1508E+00  0.1508E+00
     -5.679  0.1872E-01  0.1872E-01  0.1528E+00  0.1528E+00
     -5.572  0.2106E-01  0.2106E-01  0.1550E+00  0.1550E+00
     -5.465  0.3244E-01  0.3244E-01  0.1585E+00  0.1585E+00
     -5.359  0.3397E-01  0.3397E-01  0.1621E+00  0.1621E+00
     -5.252  0.2128E-01  0.2128E-01  0.1644E+00  0.1644E+00
     -5.145  0.1634E-01  0.1634E-01  0.1661E+00  0.1661E+00
     -5.039  0.1029E-01  0.1029E-01  0.1672E+00  0.1672E+00
     -4.932  0.1042E-01  0.1042E-01  0.1683E+00  0.1683E+00
     -4.826  0.1384E-01  0.1384E-01  0.1698E+00  0.1698E+00
     -4.719  0.1138E-01  0.1138E-01  0.1710E+00  0.1710E+00
     -4.612  0.7988E-02  0.7988E-02  0.1719E+00  0.1719E+00
     -4.506  0.8756E-02  0.8756E-02  0.1728E+00  0.1728E+00
     -4.399  0.1601E-01  0.1601E-01  0.1745E+00  0.1745E+00
     -4.292  0.2405E-01  0.2405E-01  0.1771E+00  0.1771E+00
     -4.186  0.2137E-01  0.2137E-01  0.1793E+00  0.1793E+00
     -4.079  0.1726E-01  0.1726E-01  0.1812E+00  0.1812E+00
     -3.973  0.1975E-01  0.1975E-01  0.1833E+00  0.1833E+00
     -3.866  0.2461E-01  0.2461E-01  0.1859E+00  0.1859E+00
     -3.759  0.1893E-01  0.1893E-01  0.1879E+00  0.1879E+00
     -3.653  0.1919E-01  0.1919E-01  0.1900E+00  0.1900E+00
     -3.546  0.1991E-01  0.1991E-01  0.1921E+00  0.1921E+00
     -3.439  0.1632E-01  0.1632E-01  0.1938E+00  0.1938E+00
     -3.333  0.1246E-01  0.1246E-01  0.1952E+00  0.1952E+00
     -3.226  0.1270E-01  0.1270E-01  0.1965E+00  0.1965E+00
     -3.120  0.1805E-01  0.1805E-01  0.1984E+00  0.1984E+00
     -3.013  0.1769E-01  0.1769E-01  0.2003E+00  0.2003E+00
     -2.906  0.1210E-01  0.1210E-01  0.2016E+00  0.2016E+00
     -2.800  0.1237E-01  0.1237E-01  0.2029E+00  0.2029E+00
     -2.693  0.8191E-02  0.8191E-02  0.2038E+00  0.2038E+00
     -2.586  0.9595E-02  0.9595E-02  0.2048E+00  0.2048E+00
     -2.480  0.1693E-01  0.1693E-01  0.2066E+00  0.2066E+00
     -2.373  0.1700E-01  0.1700E-01  0.2085E+00  0.2085E+00
     -2.267  0.5012E-02  0.5012E-02  0.2090E+00  0.2090E+00
     -2.160  0.5470E-02  0.5470E-02  0.2096E+00  0.2096E+00
     -2.053  0.1040E-01  0.1040E-01  0.2107E+00  0.2107E+00
     -1.947  0.9306E-02  0.9306E-02  0.2117E+00  0.2117E+00
     -1.840  0.1069E-01  0.1069E-01  0.2128E+00  0.2128E+00
     -1.733  0.1086E-01  0.1086E-01  0.2140E+00  0.2140E+00
     -1.627  0.1025E-01  0.1025E-01  0.2151E+00  0.2151E+00
     -1.520  0.8054E-02  0.8054E-02  0.2159E+00  0.2159E+00
     -1.414  0.3684E-02  0.3684E-02  0.2163E+00  0.2163E+00
     -1.307  0.4182E-02  0.4181E-02  0.2168E+00  0.2168E+00
     -1.200  0.4344E-02  0.4344E-02  0.2172E+00  0.2172E+00
     -1.094  0.3197E-02  0.3197E-02  0.2176E+00  0.2176E+00
     -0.987  0.5212E-02  0.5212E-02  0.2181E+00  0.2181E+00
     -0.880  0.3952E-02  0.3952E-02  0.2185E+00  0.2185E+00
     -0.774  0.8613E-03  0.8613E-03  0.2186E+00  0.2186E+00
     -0.667  0.8429E-04  0.8429E-04  0.2186E+00  0.2186E+00
     -0.561  0.2217E-05  0.2218E-05  0.2186E+00  0.2186E+00
     -0.454  0.1694E-04  0.1694E-04  0.2186E+00  0.2186E+00
     -0.347  0.3655E-03  0.3655E-03  0.2187E+00  0.2187E+00
     -0.241  0.1109E-02  0.1109E-02  0.2188E+00  0.2188E+00
     -0.134  0.5099E-03  0.5099E-03  0.2189E+00  0.2189E+00
     -0.028  0.3362E-04  0.3362E-04  0.2189E+00  0.2189E+00
      0.079  0.2973E-06  0.2973E-06  0.2189E+00  0.2189E+00
      0.186  0.6704E-05  0.6704E-05  0.2189E+00  0.2189E+00
      0.292  0.3599E-03  0.3599E-03  0.2189E+00  0.2189E+00
      0.399  0.2572E-02  0.2572E-02  0.2192E+00  0.2192E+00
      0.506  0.2747E-02  0.2747E-02  0.2195E+00  0.2195E+00
      0.612  0.1061E-02  0.1061E-02  0.2196E+00  0.2196E+00
      0.719  0.3747E-02  0.3747E-02  0.2200E+00  0.2200E+00
      0.825  0.6256E-02  0.6256E-02  0.2206E+00  0.2206E+00
      0.932  0.9965E-02  0.9965E-02  0.2217E+00  0.2217E+00
      1.039  0.2274E-01  0.2274E-01  0.2241E+00  0.2241E+00
      1.145  0.2047E-01  0.2047E-01  0.2263E+00  0.2263E+00
      1.252  0.5650E-02  0.5650E-02  0.2269E+00  0.2269E+00
      1.359  0.2457E-02  0.2457E-02  0.2272E+00  0.2272E+00
      1.465  0.6177E-02  0.6177E-02  0.2278E+00  0.2278E+00
      1.572  0.1412E-01  0.1412E-01  0.2293E+00  0.2293E+00
      1.678  0.1998E-01  0.1998E-01  0.2315E+00  0.2315E+00
      1.785  0.1443E-01  0.1443E-01  0.2330E+00  0.2330E+00
      1.892  0.8237E-02  0.8237E-02  0.2339E+00  0.2339E+00
      1.998  0.7436E-02  0.7436E-02  0.2347E+00  0.2347E+00
      2.105  0.1035E-01  0.1035E-01  0.2358E+00  0.2358E+00
      2.212  0.7208E-02  0.7208E-02  0.2366E+00  0.2366E+00
      2.318  0.8498E-02  0.8498E-02  0.2375E+00  0.2375E+00
      2.425  0.6929E-02  0.6929E-02  0.2382E+00  0.2382E+00
      2.531  0.7323E-02  0.7323E-02  0.2390E+00  0.2390E+00
      2.638  0.1303E-01  0.1303E-01  0.2404E+00  0.2404E+00
      2.745  0.8852E-02  0.8853E-02  0.2413E+00  0.2413E+00
      2.851  0.4910E-02  0.4912E-02  0.2418E+00  0.2418E+00
      2.958  0.7013E-02  0.7016E-02  0.2426E+00  0.2426E+00
      3.065  0.1105E-01  0.1105E-01  0.2438E+00  0.2438E+00
      3.171  0.1135E-01  0.1135E-01  0.2450E+00  0.2450E+00
      3.278  0.9486E-02  0.9488E-02  0.2460E+00  0.2460E+00
      3.384  0.1042E-01  0.1042E-01  0.2471E+00  0.2471E+00
      3.491  0.8856E-02  0.8856E-02  0.2480E+00  0.2480E+00
      3.598  0.1708E-01  0.1709E-01  0.2499E+00  0.2499E+00
      3.704  0.2357E-01  0.2357E-01  0.2524E+00  0.2524E+00
      3.811  0.2399E-01  0.2399E-01  0.2549E+00  0.2549E+00
      3.918  0.2167E-01  0.2166E-01  0.2572E+00  0.2572E+00
      4.024  0.2245E-01  0.2245E-01  0.2596E+00  0.2596E+00
      4.131  0.2594E-01  0.2594E-01  0.2624E+00  0.2624E+00
      4.237  0.2549E-01  0.2550E-01  0.2651E+00  0.2651E+00
      4.344  0.2366E-01  0.2366E-01  0.2676E+00  0.2676E+00
      4.451  0.2397E-01  0.2397E-01  0.2702E+00  0.2702E+00
      4.557  0.2221E-01  0.2221E-01  0.2726E+00  0.2726E+00
      4.664  0.1957E-01  0.1958E-01  0.2747E+00  0.2747E+00
      4.771  0.2632E-01  0.2632E-01  0.2775E+00  0.2775E+00
      4.877  0.2737E-01  0.2737E-01  0.2804E+00  0.2804E+00
      4.984  0.2158E-01  0.2158E-01  0.2827E+00  0.2827E+00
      5.090  0.2378E-01  0.2379E-01  0.2852E+00  0.2852E+00
      5.197  0.2646E-01  0.2645E-01  0.2880E+00  0.2880E+00
      5.304  0.2144E-01  0.2144E-01  0.2903E+00  0.2903E+00
      5.410  0.2247E-01  0.2246E-01  0.2927E+00  0.2927E+00
      5.517  0.2325E-01  0.2325E-01  0.2952E+00  0.2952E+00
      5.624  0.2819E-01  0.2819E-01  0.2982E+00  0.2982E+00
      5.730  0.2119E-01  0.2120E-01  0.3005E+00  0.3005E+00
      5.837  0.2199E-01  0.2200E-01  0.3028E+00  0.3028E+00
      5.943  0.2116E-01  0.2115E-01  0.3051E+00  0.3051E+00
      6.050  0.2127E-01  0.2127E-01  0.3073E+00  0.3073E+00
      6.157  0.1515E-01  0.1515E-01  0.3089E+00  0.3089E+00
      6.263  0.1657E-01  0.1658E-01  0.3107E+00  0.3107E+00
      6.370  0.2295E-01  0.2296E-01  0.3132E+00  0.3132E+00
      6.476  0.2448E-01  0.2448E-01  0.3158E+00  0.3158E+00
      6.583  0.2508E-01  0.2508E-01  0.3184E+00  0.3184E+00
      6.690  0.2580E-01  0.2581E-01  0.3212E+00  0.3212E+00
      6.796  0.3325E-01  0.3326E-01  0.3247E+00  0.3247E+00
      6.903  0.2825E-01  0.2825E-01  0.3278E+00  0.3278E+00
      7.010  0.2495E-01  0.2497E-01  0.3304E+00  0.3304E+00
      7.116  0.2617E-01  0.2615E-01  0.3332E+00  0.3332E+00
      7.223  0.2202E-01  0.2201E-01  0.3356E+00  0.3356E+00
      7.329  0.1796E-01  0.1795E-01  0.3375E+00  0.3375E+00
      7.436  0.2042E-01  0.2045E-01  0.3396E+00  0.3396E+00
      7.543  0.2357E-01  0.2358E-01  0.3422E+00  0.3422E+00
      7.649  0.2220E-01  0.2219E-01  0.3445E+00  0.3445E+00
      7.756  0.2660E-01  0.2660E-01  0.3474E+00  0.3474E+00
      7.863  0.3296E-01  0.3293E-01  0.3509E+00  0.3509E+00
      7.969  0.3066E-01  0.3066E-01  0.3541E+00  0.3541E+00
      8.076  0.3073E-01  0.3076E-01  0.3574E+00  0.3574E+00
      8.182  0.3371E-01  0.3370E-01  0.3610E+00  0.3610E+00
      8.289  0.2852E-01  0.2852E-01  0.3641E+00  0.3641E+00
      8.396  0.3550E-01  0.3552E-01  0.3678E+00  0.3678E+00
      8.502  0.3389E-01  0.3386E-01  0.3715E+00  0.3715E+00
      8.609  0.1737E-01  0.1735E-01  0.3733E+00  0.3733E+00
      8.716  0.8616E-02  0.8610E-02  0.3742E+00  0.3742E+00
      8.822  0.4067E-02  0.4066E-02  0.3747E+00  0.3747E+00
      8.929  0.2628E-02  0.2628E-02  0.3749E+00  0.3749E+00
      9.035  0.5556E-03  0.5549E-03  0.3750E+00  0.3750E+00
      9.142  0.2078E-04  0.2073E-04  0.3750E+00  0.3750E+00
      9.249  0.1039E-06  0.1036E-06  0.3750E+00  0.3750E+00
      9.355  0.6071E-10  0.6041E-10  0.3750E+00  0.3750E+00
      9.462  0.3910E-14  0.3886E-14  0.3750E+00  0.3750E+00
      9.569  0.0000E+00  0.0000E+00  0.3750E+00  0.3750E+00
      9.675  0.0000E+00  0.0000E+00  0.3750E+00  0.3750E+00
      9.782  0.0000E+00  0.0000E+00  0.3750E+00  0.3750E+00
      9.888  0.0000E+00  0.0000E+00  0.3750E+00  0.3750E+00
      9.995  0.0000E+00  0.0000E+00  0.3750E+00  0.3750E+00
     10.102  0.0000E+00  0.0000E+00  0.3750E+00  0.3750E+00
     10.208  0.0000E+00  0.0000E+00  0.3750E+00  0.3750E+00
     10.315  0.0000E+00  0.0000E+00  0.3750E+00  0.3750E+00
