Lattice                                 
           1
     4.195027    2.422000    0.000000
    -4.195027    2.422000    0.000000
     0.000000    0.000000   15.000000
   B    C 
     4    11
Direct configuration=     1
   0.00415361  0.00267210  0.12034134
   0.35695335  0.00285503  0.09748893
   0.00423858  0.35550699  0.09749256
   0.65142295  0.65006557  0.09747688
   0.32808646  0.32671938  0.10030508
   0.68027775  0.00278085  0.10027562
   0.00416530  0.67883808  0.10026559
   0.11111044  0.38888856  0.33726667
   0.27777744  0.22222156  0.33726667
   0.11111044  0.88888856  0.33726667
   0.27777744  0.72222156  0.33726667
   0.61111044  0.38888856  0.33726667
   0.77777744  0.22222156  0.33726667
   0.61111044  0.88888856  0.33726667
   0.77777744  0.72222156  0.33726667
Direct configuration=     2
   0.00416805  0.00269670  0.11906998
   0.35574068  0.00279172  0.09781878
   0.00418898  0.35452352  0.09787518
   0.65252509  0.65105866  0.09784568
   0.32480156  0.32327272  0.10031247
   0.68382926  0.00279472  0.10032629
   0.00422517  0.68214367  0.10028119
   0.11103936  0.38899162  0.33727965
   0.27791582  0.22234639  0.33735330
   0.11129730  0.88901852  0.33729055
   0.27796842  0.72221849  0.33720517
   0.61107125  0.38883640  0.33720027
   0.77773632  0.22226729  0.33728906
   0.61092666  0.88883970  0.33734236
   0.77741565  0.72207830  0.33728939
Direct configuration=     3
   0.00416087  0.00268448  0.11970180
   0.35634333  0.00282318  0.09765486
   0.00421363  0.35501227  0.09768504
   0.65197737  0.65056513  0.09766240
   0.32643403  0.32498557  0.10030880
   0.68206430  0.00278783  0.10030111
   0.00419541  0.68050092  0.10027343
   0.11107468  0.38894040  0.33727320
   0.27784705  0.22228435  0.33731025
   0.11120444  0.88895393  0.33727868
   0.27787351  0.72222001  0.33723573
   0.61109073  0.38886232  0.33723327
   0.77775675  0.22224456  0.33727793
   0.61101799  0.88886398  0.33730474
   0.77759545  0.72214949  0.33727810
