 vasp.6.4.2 20Jul23 (build Aug 23 2023 19:13:21) complex                        
  
 executed on             LinuxIFC date 2024.02.03  16:18:50
 running   96 mpi-ranks, with    1 threads/rank, on    2 nodes
 distrk:  each k-point on   96 cores,    1 groups
 distr:  one band on NCORE=   1 cores,   96 groups


--------------------------------------------------------------------------------------------------------


 INCAR:
   SYSTEM = PDoS_HSE06
   ISTART = 1
   ICHARG = 2
   PREC = Accurate
   LORBIT = 11
   NEDOS = 4000
   ENCUT = 450
   ALGO = Damped
   TIME = 0.4
   NELM = 200
   EDIFF = 1E-6
   EDIFFG = -1E-3
   SIGMA = 0.1
   ISMEAR = 0
   IBRION = -1
   GGA = PE
   LHFCALC = .TRUE.
   AEXX = 0.25
   HFSCREEN = 0.2
   NKRED = 1

 POTCAR:    PAW_PBE C 08Apr2002                   
 POTCAR:    PAW_PBE C 08Apr2002                   
   SHA256 =  253f7b50bb8d59471dbedb8285d89021f4a42ed1a2c5d38a03a736e69125dd95 C/POTCAR              
   COPYR  = (c) Copyright 08Apr2002 Georg Kresse                                                    
   COPYR  = This file is part of the software VASP. Any use, copying, and all other rights are regul
   COPYR  = If you do not have a valid VASP license, you may not use, copy or distribute this file. 
   VRHFIN =C: s2p2                                                                                  
   LEXCH  = PE                                                                                      
   EATOM  =   147.1560 eV,   10.8157 Ry                                                             
                                                                                                    
   TITEL  = PAW_PBE C 08Apr2002                                                                     
   LULTRA =        F    use ultrasoft PP ?                                                          
   IUNSCR =        1    unscreen: 0-lin 1-nonlin 2-no                                               
   RPACOR =    1.200    partial core radius                                                         
   POMASS =   12.011; ZVAL   =    4.000    mass and valenz                                          
   RCORE  =    1.500    outmost cutoff radius                                                       
   RWIGS  =    1.630; RWIGS  =    0.863    wigner-seitz radius (au A)                               
   ENMAX  =  400.000; ENMIN  =  300.000 eV                                                          
   ICORE  =        2    local potential                                                             
   LCOR   =        T    correct aug charges                                                         
   LPAW   =        T    paw PP                                                                      
   EAUG   =  644.873                                                                                
   DEXC   =    0.000                                                                                
   RMAX   =    1.529    core radius for proj-oper                                                   
   RAUG   =    1.300    factor for augmentation sphere                                              
   RDEP   =    1.501    radius for radial grids                                                     
   RDEPT  =    1.300    core radius for aug-charge                                                  
                                                                                                    
   Atomic configuration                                                                             
    4 entries                                                                                       
     n  l   j            E        occ.                                                              
     1  0  0.50      -273.3789   2.0000                                                             
     2  0  0.50       -13.7508   2.0000                                                             
     2  1  0.50        -5.2854   2.0000                                                             
     3  2  1.50        -5.4423   0.0000                                                             
   Description                                                                                      
     l       E           TYP  RCUT    TYP  RCUT                                                     
     0    -13.7508458     23  1.200                                                                 
     0     -8.2022199     23  1.200                                                                 
     1     -5.2854383     23  1.500                                                                 
     1     34.0145650     23  1.500                                                                 
     2     -5.4423304      7  1.500                                                                 
  local pseudopotential read in
  partial core-charges read in
  partial kinetic energy density read in
  atomic valenz-charges read in
  non local Contribution for L=           0  read in
    real space projection operators read in
  non local Contribution for L=           0  read in
    real space projection operators read in
  non local Contribution for L=           1  read in
    real space projection operators read in
  non local Contribution for L=           1  read in
    real space projection operators read in
    PAW grid and wavefunctions read in
 
   number of l-projection  operators is LMAX  =           4
   number of lm-projection operators is LMMAX =           8
 
  PAW_PBE C 08Apr2002                   :
 energy of atom  1       EATOM= -147.1560
 kinetic energy error for atom=    0.0116 (will be added to EATOM!!)
 
 
 POSCAR: Graphene with lattice parameter 2.467
  positions in direct lattice
  velocities in cartesian coordinates
 exchange correlation table for  LEXCH =        8
   RHO(1)=    0.500       N(1)  =     2000
   RHO(2)=  100.500       N(2)  =     4000

 VTST: version 4.1, (05/19/21)

 CHAIN: initializing optimizer
 
 OPT: Using VASP Dynamics algorithm
 CHAIN: Read ICHAIN            0
 
 POSCAR: Graphene with lattice parameter 2.467
  positions in direct lattice
  velocities in cartesian coordinates
 


--------------------------------------------------------------------------------------------------------


 ion  position               nearest neighbor table
   1  0.333  0.667  0.100-   2 1.42   2 1.42   2 1.42
   2  0.667  0.333  0.100-   1 1.42   1 1.42   1 1.42
 
  LATTYP: Found a hexagonal cell.
 ALAT       =     2.4669998518
 C/A-ratio  =     6.0802597897
  
  Lattice vectors:
  
 A1 = (   2.1364845000,   1.2335000000,   0.0000000000)
 A2 = (  -2.1364845000,   1.2335000000,   0.0000000000)
 A3 = (   0.0000000000,   0.0000000000,  15.0000000000)


Analysis of symmetry for initial positions (statically):
=====================================================================
 Subroutine PRICEL returns:
 Original cell was already a primitive cell.
 

 Routine SETGRP: Setting up the symmetry group for a 
 hexagonal supercell.


 Subroutine GETGRP returns: Found 24 space group operations
 (whereof 12 operations were pure point group operations)
 out of a pool of 24 trial point group operations.


The static configuration has the point symmetry C_6v.
 The point group associated with its full space group is D_6h.


Analysis of symmetry for dynamics (positions and initial velocities):
=====================================================================
 Subroutine PRICEL returns:
 Original cell was already a primitive cell.
 

 Routine SETGRP: Setting up the symmetry group for a 
 hexagonal supercell.


 Subroutine GETGRP returns: Found 24 space group operations
 (whereof 12 operations were pure point group operations)
 out of a pool of 24 trial point group operations.


The dynamic configuration has the point symmetry C_6v.
 The point group associated with its full space group is D_6h.


 Subroutine INISYM returns: Found 24 space group operations
 (whereof 12 operations are pure point group operations),
 and found     1 'primitive' translations


----------------------------------------------------------------------------------------

                                     Primitive cell                                     

  volume of cell :      79.0606

  direct lattice vectors                    reciprocal lattice vectors
     2.136484500  1.233500000  0.000000000     0.234029313  0.405350628  0.000000000
    -2.136484500  1.233500000  0.000000000    -0.234029313  0.405350628  0.000000000
     0.000000000  0.000000000 15.000000000     0.000000000  0.000000000  0.066666667

  length of vectors
     2.466999852  2.466999852 15.000000000     0.468058598  0.468058598  0.066666667

  position of ions in fractional coordinates (direct lattice)
     0.333333000  0.666666000  0.100000000
     0.666666000  0.333333000  0.100000000

  ion indices of the primitive-cell ions
   primitive index   ion index
                 1           1
                 2           2

----------------------------------------------------------------------------------------

 
 
 KPOINTS: k-points                                

Automatic generation of k-mesh.
 Grid dimensions read from file:
 generate k-points for:   33   33    1

 Generating k-lattice:

  Cartesian coordinates                     Fractional coordinates (reciprocal lattice)
     0.007091797  0.012283352  0.000000000     0.030303030 -0.000000000  0.000000000
    -0.007091797  0.012283352  0.000000000    -0.000000000  0.030303030  0.000000000
     0.000000000  0.000000000  0.066666667     0.000000000  0.000000000  1.000000000

  Length of vectors
     0.014183594  0.014183594  0.066666667

  Shift w.r.t. Gamma in fractional coordinates (k-lattice)
     0.000000000  0.000000000  0.000000000

 
 Subroutine IBZKPT returns following result:
 ===========================================
 
 Found    108 irreducible k-points:
 
 Following reciprocal coordinates:
            Coordinates               Weight
  0.000000  0.000000  0.000000      1.000000
  0.030303 -0.000000  0.000000      6.000000
  0.060606 -0.000000  0.000000      6.000000
  0.090909 -0.000000  0.000000      6.000000
  0.121212 -0.000000  0.000000      6.000000
  0.151515  0.000000  0.000000      6.000000
  0.181818 -0.000000  0.000000      6.000000
  0.212121 -0.000000  0.000000      6.000000
  0.242424 -0.000000  0.000000      6.000000
  0.272727  0.000000  0.000000      6.000000
  0.303030 -0.000000  0.000000      6.000000
  0.333333 -0.000000  0.000000      6.000000
  0.363636 -0.000000  0.000000      6.000000
  0.393939  0.000000  0.000000      6.000000
  0.424242 -0.000000  0.000000      6.000000
  0.454545 -0.000000  0.000000      6.000000
  0.484848 -0.000000  0.000000      6.000000
  0.030303  0.030303  0.000000      6.000000
  0.060606  0.030303  0.000000     12.000000
  0.090909  0.030303  0.000000     12.000000
  0.121212  0.030303  0.000000     12.000000
  0.151515  0.030303  0.000000     12.000000
  0.181818  0.030303  0.000000     12.000000
  0.212121  0.030303  0.000000     12.000000
  0.242424  0.030303  0.000000     12.000000
  0.272727  0.030303  0.000000     12.000000
  0.303030  0.030303  0.000000     12.000000
  0.333333  0.030303  0.000000     12.000000
  0.363636  0.030303  0.000000     12.000000
  0.393939  0.030303  0.000000     12.000000
  0.424242  0.030303  0.000000     12.000000
  0.454545  0.030303  0.000000     12.000000
  0.484848  0.030303  0.000000      6.000000
  0.060606  0.060606  0.000000      6.000000
  0.090909  0.060606  0.000000     12.000000
  0.121212  0.060606  0.000000     12.000000
  0.151515  0.060606  0.000000     12.000000
  0.181818  0.060606  0.000000     12.000000
  0.212121  0.060606  0.000000     12.000000
  0.242424  0.060606  0.000000     12.000000
  0.272727  0.060606  0.000000     12.000000
  0.303030  0.060606  0.000000     12.000000
  0.333333  0.060606  0.000000     12.000000
  0.363636  0.060606  0.000000     12.000000
  0.393939  0.060606  0.000000     12.000000
  0.424242  0.060606  0.000000     12.000000
  0.454545  0.060606  0.000000     12.000000
  0.090909  0.090909  0.000000      6.000000
  0.121212  0.090909  0.000000     12.000000
  0.151515  0.090909  0.000000     12.000000
  0.181818  0.090909  0.000000     12.000000
  0.212121  0.090909  0.000000     12.000000
  0.242424  0.090909  0.000000     12.000000
  0.272727  0.090909  0.000000     12.000000
  0.303030  0.090909  0.000000     12.000000
  0.333333  0.090909  0.000000     12.000000
  0.363636  0.090909  0.000000     12.000000
  0.393939  0.090909  0.000000     12.000000
  0.424242  0.090909  0.000000     12.000000
  0.454545  0.090909  0.000000      6.000000
  0.121212  0.121212  0.000000      6.000000
  0.151515  0.121212  0.000000     12.000000
  0.181818  0.121212  0.000000     12.000000
  0.212121  0.121212  0.000000     12.000000
  0.242424  0.121212  0.000000     12.000000
  0.272727  0.121212  0.000000     12.000000
  0.303030  0.121212  0.000000     12.000000
  0.333333  0.121212  0.000000     12.000000
  0.363636  0.121212  0.000000     12.000000
  0.393939  0.121212  0.000000     12.000000
  0.424242  0.121212  0.000000     12.000000
  0.151515  0.151515  0.000000      6.000000
  0.181818  0.151515  0.000000     12.000000
  0.212121  0.151515  0.000000     12.000000
  0.242424  0.151515  0.000000     12.000000
  0.272727  0.151515  0.000000     12.000000
  0.303030  0.151515  0.000000     12.000000
  0.333333  0.151515  0.000000     12.000000
  0.363636  0.151515  0.000000     12.000000
  0.393939  0.151515  0.000000     12.000000
  0.424242  0.151515  0.000000      6.000000
  0.181818  0.181818  0.000000      6.000000
  0.212121  0.181818  0.000000     12.000000
  0.242424  0.181818  0.000000     12.000000
  0.272727  0.181818  0.000000     12.000000
  0.303030  0.181818  0.000000     12.000000
  0.333333  0.181818  0.000000     12.000000
  0.363636  0.181818  0.000000     12.000000
  0.393939  0.181818  0.000000     12.000000
  0.212121  0.212121  0.000000      6.000000
  0.242424  0.212121  0.000000     12.000000
  0.272727  0.212121  0.000000     12.000000
  0.303030  0.212121  0.000000     12.000000
  0.333333  0.212121  0.000000     12.000000
  0.363636  0.212121  0.000000     12.000000
  0.393939  0.212121  0.000000      6.000000
  0.242424  0.242424  0.000000      6.000000
  0.272727  0.242424  0.000000     12.000000
  0.303030  0.242424  0.000000     12.000000
  0.333333  0.242424  0.000000     12.000000
  0.363636  0.242424  0.000000     12.000000
  0.272727  0.272727  0.000000      6.000000
  0.303030  0.272727  0.000000     12.000000
  0.333333  0.272727  0.000000     12.000000
  0.363636  0.272727  0.000000      6.000000
  0.303030  0.303030  0.000000      6.000000
  0.333333  0.303030  0.000000     12.000000
  0.333333  0.333333  0.000000      2.000000
 
 Following cartesian coordinates:
            Coordinates               Weight
  0.000000  0.000000  0.000000      1.000000
  0.007092  0.012283  0.000000      6.000000
  0.014184  0.024567  0.000000      6.000000
  0.021275  0.036850  0.000000      6.000000
  0.028367  0.049133  0.000000      6.000000
  0.035459  0.061417  0.000000      6.000000
  0.042551  0.073700  0.000000      6.000000
  0.049643  0.085983  0.000000      6.000000
  0.056734  0.098267  0.000000      6.000000
  0.063826  0.110550  0.000000      6.000000
  0.070918  0.122834  0.000000      6.000000
  0.078010  0.135117  0.000000      6.000000
  0.085102  0.147400  0.000000      6.000000
  0.092193  0.159684  0.000000      6.000000
  0.099285  0.171967  0.000000      6.000000
  0.106377  0.184250  0.000000      6.000000
  0.113469  0.196534  0.000000      6.000000
 -0.000000  0.024567  0.000000      6.000000
  0.007092  0.036850  0.000000     12.000000
  0.014184  0.049133  0.000000     12.000000
  0.021275  0.061417  0.000000     12.000000
  0.028367  0.073700  0.000000     12.000000
  0.035459  0.085983  0.000000     12.000000
  0.042551  0.098267  0.000000     12.000000
  0.049643  0.110550  0.000000     12.000000
  0.056734  0.122834  0.000000     12.000000
  0.063826  0.135117  0.000000     12.000000
  0.070918  0.147400  0.000000     12.000000
  0.078010  0.159684  0.000000     12.000000
  0.085102  0.171967  0.000000     12.000000
  0.092193  0.184250  0.000000     12.000000
  0.099285  0.196534  0.000000     12.000000
  0.106377  0.208817  0.000000      6.000000
 -0.000000  0.049133  0.000000      6.000000
  0.007092  0.061417  0.000000     12.000000
  0.014184  0.073700  0.000000     12.000000
  0.021275  0.085983  0.000000     12.000000
  0.028367  0.098267  0.000000     12.000000
  0.035459  0.110550  0.000000     12.000000
  0.042551  0.122834  0.000000     12.000000
  0.049643  0.135117  0.000000     12.000000
  0.056734  0.147400  0.000000     12.000000
  0.063826  0.159684  0.000000     12.000000
  0.070918  0.171967  0.000000     12.000000
  0.078010  0.184250  0.000000     12.000000
  0.085102  0.196534  0.000000     12.000000
  0.092193  0.208817  0.000000     12.000000
 -0.000000  0.073700  0.000000      6.000000
  0.007092  0.085983  0.000000     12.000000
  0.014184  0.098267  0.000000     12.000000
  0.021275  0.110550  0.000000     12.000000
  0.028367  0.122834  0.000000     12.000000
  0.035459  0.135117  0.000000     12.000000
  0.042551  0.147400  0.000000     12.000000
  0.049643  0.159684  0.000000     12.000000
  0.056734  0.171967  0.000000     12.000000
  0.063826  0.184250  0.000000     12.000000
  0.070918  0.196534  0.000000     12.000000
  0.078010  0.208817  0.000000     12.000000
  0.085102  0.221100  0.000000      6.000000
 -0.000000  0.098267  0.000000      6.000000
  0.007092  0.110550  0.000000     12.000000
  0.014184  0.122834  0.000000     12.000000
  0.021275  0.135117  0.000000     12.000000
  0.028367  0.147400  0.000000     12.000000
  0.035459  0.159684  0.000000     12.000000
  0.042551  0.171967  0.000000     12.000000
  0.049643  0.184250  0.000000     12.000000
  0.056734  0.196534  0.000000     12.000000
  0.063826  0.208817  0.000000     12.000000
  0.070918  0.221100  0.000000     12.000000
 -0.000000  0.122834  0.000000      6.000000
  0.007092  0.135117  0.000000     12.000000
  0.014184  0.147400  0.000000     12.000000
  0.021275  0.159684  0.000000     12.000000
  0.028367  0.171967  0.000000     12.000000
  0.035459  0.184250  0.000000     12.000000
  0.042551  0.196534  0.000000     12.000000
  0.049643  0.208817  0.000000     12.000000
  0.056734  0.221100  0.000000     12.000000
  0.063826  0.233384  0.000000      6.000000
  0.000000  0.147400  0.000000      6.000000
  0.007092  0.159684  0.000000     12.000000
  0.014184  0.171967  0.000000     12.000000
  0.021275  0.184250  0.000000     12.000000
  0.028367  0.196534  0.000000     12.000000
  0.035459  0.208817  0.000000     12.000000
  0.042551  0.221100  0.000000     12.000000
  0.049643  0.233384  0.000000     12.000000
 -0.000000  0.171967  0.000000      6.000000
  0.007092  0.184250  0.000000     12.000000
  0.014184  0.196534  0.000000     12.000000
  0.021275  0.208817  0.000000     12.000000
  0.028367  0.221100  0.000000     12.000000
  0.035459  0.233384  0.000000     12.000000
  0.042551  0.245667  0.000000      6.000000
  0.000000  0.196534  0.000000      6.000000
  0.007092  0.208817  0.000000     12.000000
  0.014184  0.221100  0.000000     12.000000
  0.021275  0.233384  0.000000     12.000000
  0.028367  0.245667  0.000000     12.000000
 -0.000000  0.221100  0.000000      6.000000
  0.007092  0.233384  0.000000     12.000000
  0.014184  0.245667  0.000000     12.000000
  0.021275  0.257950  0.000000      6.000000
 -0.000000  0.245667  0.000000      6.000000
  0.007092  0.257950  0.000000     12.000000
  0.000000  0.270234  0.000000      2.000000
 
 
 Subroutine IBZKPT_HF returns following result:
 ==============================================
 
 Found   1089 k-points in 1st BZ
 the following   1089 k-points will be used (e.g. in the exchange kernel)
 Following reciprocal coordinates:   # in IRBZ
  0.000000  0.000000  0.000000    0.00091827   1 t-inv F
  0.030303 -0.000000  0.000000    0.00091827   2 t-inv F
  0.060606 -0.000000  0.000000    0.00091827   3 t-inv F
  0.090909 -0.000000  0.000000    0.00091827   4 t-inv F
  0.121212 -0.000000  0.000000    0.00091827   5 t-inv F
  0.151515  0.000000  0.000000    0.00091827   6 t-inv F
  0.181818 -0.000000  0.000000    0.00091827   7 t-inv F
  0.212121 -0.000000  0.000000    0.00091827   8 t-inv F
  0.242424 -0.000000  0.000000    0.00091827   9 t-inv F
  0.272727  0.000000  0.000000    0.00091827  10 t-inv F
  0.303030 -0.000000  0.000000    0.00091827  11 t-inv F
  0.333333 -0.000000  0.000000    0.00091827  12 t-inv F
  0.363636 -0.000000  0.000000    0.00091827  13 t-inv F
  0.393939  0.000000  0.000000    0.00091827  14 t-inv F
  0.424242 -0.000000  0.000000    0.00091827  15 t-inv F
  0.454545 -0.000000  0.000000    0.00091827  16 t-inv F
  0.484848 -0.000000  0.000000    0.00091827  17 t-inv F
  0.030303  0.030303  0.000000    0.00091827  18 t-inv F
  0.060606  0.030303  0.000000    0.00091827  19 t-inv F
  0.090909  0.030303  0.000000    0.00091827  20 t-inv F
  0.121212  0.030303  0.000000    0.00091827  21 t-inv F
  0.151515  0.030303  0.000000    0.00091827  22 t-inv F
  0.181818  0.030303  0.000000    0.00091827  23 t-inv F
  0.212121  0.030303  0.000000    0.00091827  24 t-inv F
  0.242424  0.030303  0.000000    0.00091827  25 t-inv F
  0.272727  0.030303  0.000000    0.00091827  26 t-inv F
  0.303030  0.030303  0.000000    0.00091827  27 t-inv F
  0.333333  0.030303  0.000000    0.00091827  28 t-inv F
  0.363636  0.030303  0.000000    0.00091827  29 t-inv F
  0.393939  0.030303  0.000000    0.00091827  30 t-inv F
  0.424242  0.030303  0.000000    0.00091827  31 t-inv F
  0.454545  0.030303  0.000000    0.00091827  32 t-inv F
  0.484848  0.030303  0.000000    0.00091827  33 t-inv F
  0.060606  0.060606  0.000000    0.00091827  34 t-inv F
  0.090909  0.060606  0.000000    0.00091827  35 t-inv F
  0.121212  0.060606  0.000000    0.00091827  36 t-inv F
  0.151515  0.060606  0.000000    0.00091827  37 t-inv F
  0.181818  0.060606  0.000000    0.00091827  38 t-inv F
  0.212121  0.060606  0.000000    0.00091827  39 t-inv F
  0.242424  0.060606  0.000000    0.00091827  40 t-inv F
  0.272727  0.060606  0.000000    0.00091827  41 t-inv F
  0.303030  0.060606  0.000000    0.00091827  42 t-inv F
  0.333333  0.060606  0.000000    0.00091827  43 t-inv F
  0.363636  0.060606  0.000000    0.00091827  44 t-inv F
  0.393939  0.060606  0.000000    0.00091827  45 t-inv F
  0.424242  0.060606  0.000000    0.00091827  46 t-inv F
  0.454545  0.060606  0.000000    0.00091827  47 t-inv F
  0.090909  0.090909  0.000000    0.00091827  48 t-inv F
  0.121212  0.090909  0.000000    0.00091827  49 t-inv F
  0.151515  0.090909  0.000000    0.00091827  50 t-inv F
  0.181818  0.090909  0.000000    0.00091827  51 t-inv F
  0.212121  0.090909  0.000000    0.00091827  52 t-inv F
  0.242424  0.090909  0.000000    0.00091827  53 t-inv F
  0.272727  0.090909  0.000000    0.00091827  54 t-inv F
  0.303030  0.090909  0.000000    0.00091827  55 t-inv F
  0.333333  0.090909  0.000000    0.00091827  56 t-inv F
  0.363636  0.090909  0.000000    0.00091827  57 t-inv F
  0.393939  0.090909  0.000000    0.00091827  58 t-inv F
  0.424242  0.090909  0.000000    0.00091827  59 t-inv F
  0.454545  0.090909  0.000000    0.00091827  60 t-inv F
  0.121212  0.121212  0.000000    0.00091827  61 t-inv F
  0.151515  0.121212  0.000000    0.00091827  62 t-inv F
  0.181818  0.121212  0.000000    0.00091827  63 t-inv F
  0.212121  0.121212  0.000000    0.00091827  64 t-inv F
  0.242424  0.121212  0.000000    0.00091827  65 t-inv F
  0.272727  0.121212  0.000000    0.00091827  66 t-inv F
  0.303030  0.121212  0.000000    0.00091827  67 t-inv F
  0.333333  0.121212  0.000000    0.00091827  68 t-inv F
  0.363636  0.121212  0.000000    0.00091827  69 t-inv F
  0.393939  0.121212  0.000000    0.00091827  70 t-inv F
  0.424242  0.121212  0.000000    0.00091827  71 t-inv F
  0.151515  0.151515  0.000000    0.00091827  72 t-inv F
  0.181818  0.151515  0.000000    0.00091827  73 t-inv F
  0.212121  0.151515  0.000000    0.00091827  74 t-inv F
  0.242424  0.151515  0.000000    0.00091827  75 t-inv F
  0.272727  0.151515  0.000000    0.00091827  76 t-inv F
  0.303030  0.151515  0.000000    0.00091827  77 t-inv F
  0.333333  0.151515  0.000000    0.00091827  78 t-inv F
  0.363636  0.151515  0.000000    0.00091827  79 t-inv F
  0.393939  0.151515  0.000000    0.00091827  80 t-inv F
  0.424242  0.151515  0.000000    0.00091827  81 t-inv F
  0.181818  0.181818  0.000000    0.00091827  82 t-inv F
  0.212121  0.181818  0.000000    0.00091827  83 t-inv F
  0.242424  0.181818  0.000000    0.00091827  84 t-inv F
  0.272727  0.181818  0.000000    0.00091827  85 t-inv F
  0.303030  0.181818  0.000000    0.00091827  86 t-inv F
  0.333333  0.181818  0.000000    0.00091827  87 t-inv F
  0.363636  0.181818  0.000000    0.00091827  88 t-inv F
  0.393939  0.181818  0.000000    0.00091827  89 t-inv F
  0.212121  0.212121  0.000000    0.00091827  90 t-inv F
  0.242424  0.212121  0.000000    0.00091827  91 t-inv F
  0.272727  0.212121  0.000000    0.00091827  92 t-inv F
  0.303030  0.212121  0.000000    0.00091827  93 t-inv F
  0.333333  0.212121  0.000000    0.00091827  94 t-inv F
  0.363636  0.212121  0.000000    0.00091827  95 t-inv F
  0.393939  0.212121  0.000000    0.00091827  96 t-inv F
  0.242424  0.242424  0.000000    0.00091827  97 t-inv F
  0.272727  0.242424  0.000000    0.00091827  98 t-inv F
  0.303030  0.242424  0.000000    0.00091827  99 t-inv F
  0.333333  0.242424  0.000000    0.00091827 100 t-inv F
  0.363636  0.242424  0.000000    0.00091827 101 t-inv F
  0.272727  0.272727  0.000000    0.00091827 102 t-inv F
  0.303030  0.272727  0.000000    0.00091827 103 t-inv F
  0.333333  0.272727  0.000000    0.00091827 104 t-inv F
  0.363636  0.272727  0.000000    0.00091827 105 t-inv F
  0.303030  0.303030  0.000000    0.00091827 106 t-inv F
  0.333333  0.303030  0.000000    0.00091827 107 t-inv F
  0.333333  0.333333  0.000000    0.00091827 108 t-inv F
  0.000000  0.030303  0.000000    0.00091827   2 t-inv F
 -0.030303  0.030303  0.000000    0.00091827   2 t-inv F
 -0.030303  0.000000  0.000000    0.00091827   2 t-inv F
 -0.000000 -0.030303  0.000000    0.00091827   2 t-inv F
  0.030303 -0.030303  0.000000    0.00091827   2 t-inv F
  0.000000  0.060606  0.000000    0.00091827   3 t-inv F
 -0.060606  0.060606  0.000000    0.00091827   3 t-inv F
 -0.060606  0.000000  0.000000    0.00091827   3 t-inv F
 -0.000000 -0.060606  0.000000    0.00091827   3 t-inv F
  0.060606 -0.060606  0.000000    0.00091827   3 t-inv F
  0.000000  0.090909  0.000000    0.00091827   4 t-inv F
 -0.090909  0.090909  0.000000    0.00091827   4 t-inv F
 -0.090909  0.000000  0.000000    0.00091827   4 t-inv F
 -0.000000 -0.090909  0.000000    0.00091827   4 t-inv F
  0.090909 -0.090909  0.000000    0.00091827   4 t-inv F
  0.000000  0.121212  0.000000    0.00091827   5 t-inv F
 -0.121212  0.121212  0.000000    0.00091827   5 t-inv F
 -0.121212  0.000000  0.000000    0.00091827   5 t-inv F
 -0.000000 -0.121212  0.000000    0.00091827   5 t-inv F
  0.121212 -0.121212  0.000000    0.00091827   5 t-inv F
 -0.000000  0.151515  0.000000    0.00091827   6 t-inv F
 -0.151515  0.151515  0.000000    0.00091827   6 t-inv F
 -0.151515 -0.000000  0.000000    0.00091827   6 t-inv F
  0.000000 -0.151515  0.000000    0.00091827   6 t-inv F
  0.151515 -0.151515  0.000000    0.00091827   6 t-inv F
  0.000000  0.181818  0.000000    0.00091827   7 t-inv F
 -0.181818  0.181818  0.000000    0.00091827   7 t-inv F
 -0.181818  0.000000  0.000000    0.00091827   7 t-inv F
 -0.000000 -0.181818  0.000000    0.00091827   7 t-inv F
  0.181818 -0.181818  0.000000    0.00091827   7 t-inv F
  0.000000  0.212121  0.000000    0.00091827   8 t-inv F
 -0.212121  0.212121  0.000000    0.00091827   8 t-inv F
 -0.212121  0.000000  0.000000    0.00091827   8 t-inv F
 -0.000000 -0.212121  0.000000    0.00091827   8 t-inv F
  0.212121 -0.212121  0.000000    0.00091827   8 t-inv F
  0.000000  0.242424  0.000000    0.00091827   9 t-inv F
 -0.242424  0.242424  0.000000    0.00091827   9 t-inv F
 -0.242424  0.000000  0.000000    0.00091827   9 t-inv F
 -0.000000 -0.242424  0.000000    0.00091827   9 t-inv F
  0.242424 -0.242424  0.000000    0.00091827   9 t-inv F
 -0.000000  0.272727  0.000000    0.00091827  10 t-inv F
 -0.272727  0.272727  0.000000    0.00091827  10 t-inv F
 -0.272727 -0.000000  0.000000    0.00091827  10 t-inv F
  0.000000 -0.272727  0.000000    0.00091827  10 t-inv F
  0.272727 -0.272727  0.000000    0.00091827  10 t-inv F
  0.000000  0.303030  0.000000    0.00091827  11 t-inv F
 -0.303030  0.303030  0.000000    0.00091827  11 t-inv F
 -0.303030  0.000000  0.000000    0.00091827  11 t-inv F
 -0.000000 -0.303030  0.000000    0.00091827  11 t-inv F
  0.303030 -0.303030  0.000000    0.00091827  11 t-inv F
  0.000000  0.333333  0.000000    0.00091827  12 t-inv F
 -0.333333  0.333333  0.000000    0.00091827  12 t-inv F
 -0.333333  0.000000  0.000000    0.00091827  12 t-inv F
 -0.000000 -0.333333  0.000000    0.00091827  12 t-inv F
  0.333333 -0.333333  0.000000    0.00091827  12 t-inv F
  0.000000  0.363636  0.000000    0.00091827  13 t-inv F
 -0.363636  0.363636  0.000000    0.00091827  13 t-inv F
 -0.363636  0.000000  0.000000    0.00091827  13 t-inv F
 -0.000000 -0.363636  0.000000    0.00091827  13 t-inv F
  0.363636 -0.363636  0.000000    0.00091827  13 t-inv F
 -0.000000  0.393939  0.000000    0.00091827  14 t-inv F
 -0.393939  0.393939  0.000000    0.00091827  14 t-inv F
 -0.393939 -0.000000  0.000000    0.00091827  14 t-inv F
  0.000000 -0.393939  0.000000    0.00091827  14 t-inv F
  0.393939 -0.393939  0.000000    0.00091827  14 t-inv F
  0.000000  0.424242  0.000000    0.00091827  15 t-inv F
 -0.424242  0.424242  0.000000    0.00091827  15 t-inv F
 -0.424242  0.000000  0.000000    0.00091827  15 t-inv F
 -0.000000 -0.424242  0.000000    0.00091827  15 t-inv F
  0.424242 -0.424242  0.000000    0.00091827  15 t-inv F
  0.000000  0.454545  0.000000    0.00091827  16 t-inv F
 -0.454545  0.454545  0.000000    0.00091827  16 t-inv F
 -0.454545  0.000000  0.000000    0.00091827  16 t-inv F
 -0.000000 -0.454545  0.000000    0.00091827  16 t-inv F
  0.454545 -0.454545  0.000000    0.00091827  16 t-inv F
  0.000000  0.484848  0.000000    0.00091827  17 t-inv F
 -0.484848  0.484848  0.000000    0.00091827  17 t-inv F
 -0.484848  0.000000  0.000000    0.00091827  17 t-inv F
 -0.000000 -0.484848  0.000000    0.00091827  17 t-inv F
  0.484848 -0.484848  0.000000    0.00091827  17 t-inv F
 -0.030303  0.060606  0.000000    0.00091827  18 t-inv F
 -0.060606  0.030303  0.000000    0.00091827  18 t-inv F
 -0.030303 -0.030303  0.000000    0.00091827  18 t-inv F
  0.030303 -0.060606  0.000000    0.00091827  18 t-inv F
  0.060606 -0.030303  0.000000    0.00091827  18 t-inv F
 -0.030303  0.090909  0.000000    0.00091827  19 t-inv F
 -0.090909  0.060606  0.000000    0.00091827  19 t-inv F
 -0.060606 -0.030303  0.000000    0.00091827  19 t-inv F
  0.030303 -0.090909  0.000000    0.00091827  19 t-inv F
  0.090909 -0.060606  0.000000    0.00091827  19 t-inv F
 -0.060606  0.090909  0.000000    0.00091827  19 t-inv F
  0.030303  0.060606  0.000000    0.00091827  19 t-inv F
  0.090909 -0.030303  0.000000    0.00091827  19 t-inv F
  0.060606 -0.090909  0.000000    0.00091827  19 t-inv F
 -0.030303 -0.060606  0.000000    0.00091827  19 t-inv F
 -0.090909  0.030303  0.000000    0.00091827  19 t-inv F
 -0.030303  0.121212  0.000000    0.00091827  20 t-inv F
 -0.121212  0.090909  0.000000    0.00091827  20 t-inv F
 -0.090909 -0.030303  0.000000    0.00091827  20 t-inv F
  0.030303 -0.121212  0.000000    0.00091827  20 t-inv F
  0.121212 -0.090909  0.000000    0.00091827  20 t-inv F
 -0.090909  0.121212  0.000000    0.00091827  20 t-inv F
  0.030303  0.090909  0.000000    0.00091827  20 t-inv F
  0.121212 -0.030303  0.000000    0.00091827  20 t-inv F
  0.090909 -0.121212  0.000000    0.00091827  20 t-inv F
 -0.030303 -0.090909  0.000000    0.00091827  20 t-inv F
 -0.121212  0.030303  0.000000    0.00091827  20 t-inv F
 -0.030303  0.151515  0.000000    0.00091827  21 t-inv F
 -0.151515  0.121212  0.000000    0.00091827  21 t-inv F
 -0.121212 -0.030303  0.000000    0.00091827  21 t-inv F
  0.030303 -0.151515  0.000000    0.00091827  21 t-inv F
  0.151515 -0.121212  0.000000    0.00091827  21 t-inv F
 -0.121212  0.151515  0.000000    0.00091827  21 t-inv F
  0.030303  0.121212  0.000000    0.00091827  21 t-inv F
  0.151515 -0.030303  0.000000    0.00091827  21 t-inv F
  0.121212 -0.151515  0.000000    0.00091827  21 t-inv F
 -0.030303 -0.121212  0.000000    0.00091827  21 t-inv F
 -0.151515  0.030303  0.000000    0.00091827  21 t-inv F
 -0.030303  0.181818  0.000000    0.00091827  22 t-inv F
 -0.181818  0.151515  0.000000    0.00091827  22 t-inv F
 -0.151515 -0.030303  0.000000    0.00091827  22 t-inv F
  0.030303 -0.181818  0.000000    0.00091827  22 t-inv F
  0.181818 -0.151515  0.000000    0.00091827  22 t-inv F
 -0.151515  0.181818  0.000000    0.00091827  22 t-inv F
  0.030303  0.151515  0.000000    0.00091827  22 t-inv F
  0.181818 -0.030303  0.000000    0.00091827  22 t-inv F
  0.151515 -0.181818  0.000000    0.00091827  22 t-inv F
 -0.030303 -0.151515  0.000000    0.00091827  22 t-inv F
 -0.181818  0.030303  0.000000    0.00091827  22 t-inv F
 -0.030303  0.212121  0.000000    0.00091827  23 t-inv F
 -0.212121  0.181818  0.000000    0.00091827  23 t-inv F
 -0.181818 -0.030303  0.000000    0.00091827  23 t-inv F
  0.030303 -0.212121  0.000000    0.00091827  23 t-inv F
  0.212121 -0.181818  0.000000    0.00091827  23 t-inv F
 -0.181818  0.212121  0.000000    0.00091827  23 t-inv F
  0.030303  0.181818  0.000000    0.00091827  23 t-inv F
  0.212121 -0.030303  0.000000    0.00091827  23 t-inv F
  0.181818 -0.212121  0.000000    0.00091827  23 t-inv F
 -0.030303 -0.181818  0.000000    0.00091827  23 t-inv F
 -0.212121  0.030303  0.000000    0.00091827  23 t-inv F
 -0.030303  0.242424  0.000000    0.00091827  24 t-inv F
 -0.242424  0.212121  0.000000    0.00091827  24 t-inv F
 -0.212121 -0.030303  0.000000    0.00091827  24 t-inv F
  0.030303 -0.242424  0.000000    0.00091827  24 t-inv F
  0.242424 -0.212121  0.000000    0.00091827  24 t-inv F
 -0.212121  0.242424  0.000000    0.00091827  24 t-inv F
  0.030303  0.212121  0.000000    0.00091827  24 t-inv F
  0.242424 -0.030303  0.000000    0.00091827  24 t-inv F
  0.212121 -0.242424  0.000000    0.00091827  24 t-inv F
 -0.030303 -0.212121  0.000000    0.00091827  24 t-inv F
 -0.242424  0.030303  0.000000    0.00091827  24 t-inv F
 -0.030303  0.272727  0.000000    0.00091827  25 t-inv F
 -0.272727  0.242424  0.000000    0.00091827  25 t-inv F
 -0.242424 -0.030303  0.000000    0.00091827  25 t-inv F
  0.030303 -0.272727  0.000000    0.00091827  25 t-inv F
  0.272727 -0.242424  0.000000    0.00091827  25 t-inv F
 -0.242424  0.272727  0.000000    0.00091827  25 t-inv F
  0.030303  0.242424  0.000000    0.00091827  25 t-inv F
  0.272727 -0.030303  0.000000    0.00091827  25 t-inv F
  0.242424 -0.272727  0.000000    0.00091827  25 t-inv F
 -0.030303 -0.242424  0.000000    0.00091827  25 t-inv F
 -0.272727  0.030303  0.000000    0.00091827  25 t-inv F
 -0.030303  0.303030  0.000000    0.00091827  26 t-inv F
 -0.303030  0.272727  0.000000    0.00091827  26 t-inv F
 -0.272727 -0.030303  0.000000    0.00091827  26 t-inv F
  0.030303 -0.303030  0.000000    0.00091827  26 t-inv F
  0.303030 -0.272727  0.000000    0.00091827  26 t-inv F
 -0.272727  0.303030  0.000000    0.00091827  26 t-inv F
  0.030303  0.272727  0.000000    0.00091827  26 t-inv F
  0.303030 -0.030303  0.000000    0.00091827  26 t-inv F
  0.272727 -0.303030  0.000000    0.00091827  26 t-inv F
 -0.030303 -0.272727  0.000000    0.00091827  26 t-inv F
 -0.303030  0.030303  0.000000    0.00091827  26 t-inv F
 -0.030303  0.333333  0.000000    0.00091827  27 t-inv F
 -0.333333  0.303030  0.000000    0.00091827  27 t-inv F
 -0.303030 -0.030303  0.000000    0.00091827  27 t-inv F
  0.030303 -0.333333  0.000000    0.00091827  27 t-inv F
  0.333333 -0.303030  0.000000    0.00091827  27 t-inv F
 -0.303030  0.333333  0.000000    0.00091827  27 t-inv F
  0.030303  0.303030  0.000000    0.00091827  27 t-inv F
  0.333333 -0.030303  0.000000    0.00091827  27 t-inv F
  0.303030 -0.333333  0.000000    0.00091827  27 t-inv F
 -0.030303 -0.303030  0.000000    0.00091827  27 t-inv F
 -0.333333  0.030303  0.000000    0.00091827  27 t-inv F
 -0.030303  0.363636  0.000000    0.00091827  28 t-inv F
 -0.363636  0.333333  0.000000    0.00091827  28 t-inv F
 -0.333333 -0.030303  0.000000    0.00091827  28 t-inv F
  0.030303 -0.363636  0.000000    0.00091827  28 t-inv F
  0.363636 -0.333333  0.000000    0.00091827  28 t-inv F
 -0.333333  0.363636  0.000000    0.00091827  28 t-inv F
  0.030303  0.333333  0.000000    0.00091827  28 t-inv F
  0.363636 -0.030303  0.000000    0.00091827  28 t-inv F
  0.333333 -0.363636  0.000000    0.00091827  28 t-inv F
 -0.030303 -0.333333  0.000000    0.00091827  28 t-inv F
 -0.363636  0.030303  0.000000    0.00091827  28 t-inv F
 -0.030303  0.393939  0.000000    0.00091827  29 t-inv F
 -0.393939  0.363636  0.000000    0.00091827  29 t-inv F
 -0.363636 -0.030303  0.000000    0.00091827  29 t-inv F
  0.030303 -0.393939  0.000000    0.00091827  29 t-inv F
  0.393939 -0.363636  0.000000    0.00091827  29 t-inv F
 -0.363636  0.393939  0.000000    0.00091827  29 t-inv F
  0.030303  0.363636  0.000000    0.00091827  29 t-inv F
  0.393939 -0.030303  0.000000    0.00091827  29 t-inv F
  0.363636 -0.393939  0.000000    0.00091827  29 t-inv F
 -0.030303 -0.363636  0.000000    0.00091827  29 t-inv F
 -0.393939  0.030303  0.000000    0.00091827  29 t-inv F
 -0.030303  0.424242  0.000000    0.00091827  30 t-inv F
 -0.424242  0.393939  0.000000    0.00091827  30 t-inv F
 -0.393939 -0.030303  0.000000    0.00091827  30 t-inv F
  0.030303 -0.424242  0.000000    0.00091827  30 t-inv F
  0.424242 -0.393939  0.000000    0.00091827  30 t-inv F
 -0.393939  0.424242  0.000000    0.00091827  30 t-inv F
  0.030303  0.393939  0.000000    0.00091827  30 t-inv F
  0.424242 -0.030303  0.000000    0.00091827  30 t-inv F
  0.393939 -0.424242  0.000000    0.00091827  30 t-inv F
 -0.030303 -0.393939  0.000000    0.00091827  30 t-inv F
 -0.424242  0.030303  0.000000    0.00091827  30 t-inv F
 -0.030303  0.454545  0.000000    0.00091827  31 t-inv F
 -0.454545  0.424242  0.000000    0.00091827  31 t-inv F
 -0.424242 -0.030303  0.000000    0.00091827  31 t-inv F
  0.030303 -0.454545  0.000000    0.00091827  31 t-inv F
  0.454545 -0.424242  0.000000    0.00091827  31 t-inv F
 -0.424242  0.454545  0.000000    0.00091827  31 t-inv F
  0.030303  0.424242  0.000000    0.00091827  31 t-inv F
  0.454545 -0.030303  0.000000    0.00091827  31 t-inv F
  0.424242 -0.454545  0.000000    0.00091827  31 t-inv F
 -0.030303 -0.424242  0.000000    0.00091827  31 t-inv F
 -0.454545  0.030303  0.000000    0.00091827  31 t-inv F
 -0.030303  0.484848  0.000000    0.00091827  32 t-inv F
 -0.484848  0.454545  0.000000    0.00091827  32 t-inv F
 -0.454545 -0.030303  0.000000    0.00091827  32 t-inv F
  0.030303 -0.484848  0.000000    0.00091827  32 t-inv F
  0.484848 -0.454545  0.000000    0.00091827  32 t-inv F
 -0.454545  0.484848  0.000000    0.00091827  32 t-inv F
  0.030303  0.454545  0.000000    0.00091827  32 t-inv F
  0.484848 -0.030303  0.000000    0.00091827  32 t-inv F
  0.454545 -0.484848  0.000000    0.00091827  32 t-inv F
 -0.030303 -0.454545  0.000000    0.00091827  32 t-inv F
 -0.484848  0.030303  0.000000    0.00091827  32 t-inv F
 -0.030303  0.515152  0.000000    0.00091827  33 t-inv F
 -0.515152  0.484848  0.000000    0.00091827  33 t-inv F
 -0.484848 -0.030303  0.000000    0.00091827  33 t-inv F
  0.030303 -0.515152  0.000000    0.00091827  33 t-inv F
  0.515152 -0.484848  0.000000    0.00091827  33 t-inv F
 -0.060606  0.121212  0.000000    0.00091827  34 t-inv F
 -0.121212  0.060606  0.000000    0.00091827  34 t-inv F
 -0.060606 -0.060606  0.000000    0.00091827  34 t-inv F
  0.060606 -0.121212  0.000000    0.00091827  34 t-inv F
  0.121212 -0.060606  0.000000    0.00091827  34 t-inv F
 -0.060606  0.151515  0.000000    0.00091827  35 t-inv F
 -0.151515  0.090909  0.000000    0.00091827  35 t-inv F
 -0.090909 -0.060606  0.000000    0.00091827  35 t-inv F
  0.060606 -0.151515  0.000000    0.00091827  35 t-inv F
  0.151515 -0.090909  0.000000    0.00091827  35 t-inv F
 -0.090909  0.151515  0.000000    0.00091827  35 t-inv F
  0.060606  0.090909  0.000000    0.00091827  35 t-inv F
  0.151515 -0.060606  0.000000    0.00091827  35 t-inv F
  0.090909 -0.151515  0.000000    0.00091827  35 t-inv F
 -0.060606 -0.090909  0.000000    0.00091827  35 t-inv F
 -0.151515  0.060606  0.000000    0.00091827  35 t-inv F
 -0.060606  0.181818  0.000000    0.00091827  36 t-inv F
 -0.181818  0.121212  0.000000    0.00091827  36 t-inv F
 -0.121212 -0.060606  0.000000    0.00091827  36 t-inv F
  0.060606 -0.181818  0.000000    0.00091827  36 t-inv F
  0.181818 -0.121212  0.000000    0.00091827  36 t-inv F
 -0.121212  0.181818  0.000000    0.00091827  36 t-inv F
  0.060606  0.121212  0.000000    0.00091827  36 t-inv F
  0.181818 -0.060606  0.000000    0.00091827  36 t-inv F
  0.121212 -0.181818  0.000000    0.00091827  36 t-inv F
 -0.060606 -0.121212  0.000000    0.00091827  36 t-inv F
 -0.181818  0.060606  0.000000    0.00091827  36 t-inv F
 -0.060606  0.212121  0.000000    0.00091827  37 t-inv F
 -0.212121  0.151515  0.000000    0.00091827  37 t-inv F
 -0.151515 -0.060606  0.000000    0.00091827  37 t-inv F
  0.060606 -0.212121  0.000000    0.00091827  37 t-inv F
  0.212121 -0.151515  0.000000    0.00091827  37 t-inv F
 -0.151515  0.212121  0.000000    0.00091827  37 t-inv F
  0.060606  0.151515  0.000000    0.00091827  37 t-inv F
  0.212121 -0.060606  0.000000    0.00091827  37 t-inv F
  0.151515 -0.212121  0.000000    0.00091827  37 t-inv F
 -0.060606 -0.151515  0.000000    0.00091827  37 t-inv F
 -0.212121  0.060606  0.000000    0.00091827  37 t-inv F
 -0.060606  0.242424  0.000000    0.00091827  38 t-inv F
 -0.242424  0.181818  0.000000    0.00091827  38 t-inv F
 -0.181818 -0.060606  0.000000    0.00091827  38 t-inv F
  0.060606 -0.242424  0.000000    0.00091827  38 t-inv F
  0.242424 -0.181818  0.000000    0.00091827  38 t-inv F
 -0.181818  0.242424  0.000000    0.00091827  38 t-inv F
  0.060606  0.181818  0.000000    0.00091827  38 t-inv F
  0.242424 -0.060606  0.000000    0.00091827  38 t-inv F
  0.181818 -0.242424  0.000000    0.00091827  38 t-inv F
 -0.060606 -0.181818  0.000000    0.00091827  38 t-inv F
 -0.242424  0.060606  0.000000    0.00091827  38 t-inv F
 -0.060606  0.272727  0.000000    0.00091827  39 t-inv F
 -0.272727  0.212121  0.000000    0.00091827  39 t-inv F
 -0.212121 -0.060606  0.000000    0.00091827  39 t-inv F
  0.060606 -0.272727  0.000000    0.00091827  39 t-inv F
  0.272727 -0.212121  0.000000    0.00091827  39 t-inv F
 -0.212121  0.272727  0.000000    0.00091827  39 t-inv F
  0.060606  0.212121  0.000000    0.00091827  39 t-inv F
  0.272727 -0.060606  0.000000    0.00091827  39 t-inv F
  0.212121 -0.272727  0.000000    0.00091827  39 t-inv F
 -0.060606 -0.212121  0.000000    0.00091827  39 t-inv F
 -0.272727  0.060606  0.000000    0.00091827  39 t-inv F
 -0.060606  0.303030  0.000000    0.00091827  40 t-inv F
 -0.303030  0.242424  0.000000    0.00091827  40 t-inv F
 -0.242424 -0.060606  0.000000    0.00091827  40 t-inv F
  0.060606 -0.303030  0.000000    0.00091827  40 t-inv F
  0.303030 -0.242424  0.000000    0.00091827  40 t-inv F
 -0.242424  0.303030  0.000000    0.00091827  40 t-inv F
  0.060606  0.242424  0.000000    0.00091827  40 t-inv F
  0.303030 -0.060606  0.000000    0.00091827  40 t-inv F
  0.242424 -0.303030  0.000000    0.00091827  40 t-inv F
 -0.060606 -0.242424  0.000000    0.00091827  40 t-inv F
 -0.303030  0.060606  0.000000    0.00091827  40 t-inv F
 -0.060606  0.333333  0.000000    0.00091827  41 t-inv F
 -0.333333  0.272727  0.000000    0.00091827  41 t-inv F
 -0.272727 -0.060606  0.000000    0.00091827  41 t-inv F
  0.060606 -0.333333  0.000000    0.00091827  41 t-inv F
  0.333333 -0.272727  0.000000    0.00091827  41 t-inv F
 -0.272727  0.333333  0.000000    0.00091827  41 t-inv F
  0.060606  0.272727  0.000000    0.00091827  41 t-inv F
  0.333333 -0.060606  0.000000    0.00091827  41 t-inv F
  0.272727 -0.333333  0.000000    0.00091827  41 t-inv F
 -0.060606 -0.272727  0.000000    0.00091827  41 t-inv F
 -0.333333  0.060606  0.000000    0.00091827  41 t-inv F
 -0.060606  0.363636  0.000000    0.00091827  42 t-inv F
 -0.363636  0.303030  0.000000    0.00091827  42 t-inv F
 -0.303030 -0.060606  0.000000    0.00091827  42 t-inv F
  0.060606 -0.363636  0.000000    0.00091827  42 t-inv F
  0.363636 -0.303030  0.000000    0.00091827  42 t-inv F
 -0.303030  0.363636  0.000000    0.00091827  42 t-inv F
  0.060606  0.303030  0.000000    0.00091827  42 t-inv F
  0.363636 -0.060606  0.000000    0.00091827  42 t-inv F
  0.303030 -0.363636  0.000000    0.00091827  42 t-inv F
 -0.060606 -0.303030  0.000000    0.00091827  42 t-inv F
 -0.363636  0.060606  0.000000    0.00091827  42 t-inv F
 -0.060606  0.393939  0.000000    0.00091827  43 t-inv F
 -0.393939  0.333333  0.000000    0.00091827  43 t-inv F
 -0.333333 -0.060606  0.000000    0.00091827  43 t-inv F
  0.060606 -0.393939  0.000000    0.00091827  43 t-inv F
  0.393939 -0.333333  0.000000    0.00091827  43 t-inv F
 -0.333333  0.393939  0.000000    0.00091827  43 t-inv F
  0.060606  0.333333  0.000000    0.00091827  43 t-inv F
  0.393939 -0.060606  0.000000    0.00091827  43 t-inv F
  0.333333 -0.393939  0.000000    0.00091827  43 t-inv F
 -0.060606 -0.333333  0.000000    0.00091827  43 t-inv F
 -0.393939  0.060606  0.000000    0.00091827  43 t-inv F
 -0.060606  0.424242  0.000000    0.00091827  44 t-inv F
 -0.424242  0.363636  0.000000    0.00091827  44 t-inv F
 -0.363636 -0.060606  0.000000    0.00091827  44 t-inv F
  0.060606 -0.424242  0.000000    0.00091827  44 t-inv F
  0.424242 -0.363636  0.000000    0.00091827  44 t-inv F
 -0.363636  0.424242  0.000000    0.00091827  44 t-inv F
  0.060606  0.363636  0.000000    0.00091827  44 t-inv F
  0.424242 -0.060606  0.000000    0.00091827  44 t-inv F
  0.363636 -0.424242  0.000000    0.00091827  44 t-inv F
 -0.060606 -0.363636  0.000000    0.00091827  44 t-inv F
 -0.424242  0.060606  0.000000    0.00091827  44 t-inv F
 -0.060606  0.454545  0.000000    0.00091827  45 t-inv F
 -0.454545  0.393939  0.000000    0.00091827  45 t-inv F
 -0.393939 -0.060606  0.000000    0.00091827  45 t-inv F
  0.060606 -0.454545  0.000000    0.00091827  45 t-inv F
  0.454545 -0.393939  0.000000    0.00091827  45 t-inv F
 -0.393939  0.454545  0.000000    0.00091827  45 t-inv F
  0.060606  0.393939  0.000000    0.00091827  45 t-inv F
  0.454545 -0.060606  0.000000    0.00091827  45 t-inv F
  0.393939 -0.454545  0.000000    0.00091827  45 t-inv F
 -0.060606 -0.393939  0.000000    0.00091827  45 t-inv F
 -0.454545  0.060606  0.000000    0.00091827  45 t-inv F
 -0.060606  0.484848  0.000000    0.00091827  46 t-inv F
 -0.484848  0.424242  0.000000    0.00091827  46 t-inv F
 -0.424242 -0.060606  0.000000    0.00091827  46 t-inv F
  0.060606 -0.484848  0.000000    0.00091827  46 t-inv F
  0.484848 -0.424242  0.000000    0.00091827  46 t-inv F
 -0.424242  0.484848  0.000000    0.00091827  46 t-inv F
  0.060606  0.424242  0.000000    0.00091827  46 t-inv F
  0.484848 -0.060606  0.000000    0.00091827  46 t-inv F
  0.424242 -0.484848  0.000000    0.00091827  46 t-inv F
 -0.060606 -0.424242  0.000000    0.00091827  46 t-inv F
 -0.484848  0.060606  0.000000    0.00091827  46 t-inv F
 -0.060606  0.515152  0.000000    0.00091827  47 t-inv F
 -0.515152  0.454545  0.000000    0.00091827  47 t-inv F
 -0.454545 -0.060606  0.000000    0.00091827  47 t-inv F
  0.060606 -0.515152  0.000000    0.00091827  47 t-inv F
  0.515152 -0.454545  0.000000    0.00091827  47 t-inv F
 -0.454545  0.515152  0.000000    0.00091827  47 t-inv F
  0.060606  0.454545  0.000000    0.00091827  47 t-inv F
  0.515152 -0.060606  0.000000    0.00091827  47 t-inv F
  0.454545 -0.515152  0.000000    0.00091827  47 t-inv F
 -0.060606 -0.454545  0.000000    0.00091827  47 t-inv F
 -0.515152  0.060606  0.000000    0.00091827  47 t-inv F
 -0.090909  0.181818  0.000000    0.00091827  48 t-inv F
 -0.181818  0.090909  0.000000    0.00091827  48 t-inv F
 -0.090909 -0.090909  0.000000    0.00091827  48 t-inv F
  0.090909 -0.181818  0.000000    0.00091827  48 t-inv F
  0.181818 -0.090909  0.000000    0.00091827  48 t-inv F
 -0.090909  0.212121  0.000000    0.00091827  49 t-inv F
 -0.212121  0.121212  0.000000    0.00091827  49 t-inv F
 -0.121212 -0.090909  0.000000    0.00091827  49 t-inv F
  0.090909 -0.212121  0.000000    0.00091827  49 t-inv F
  0.212121 -0.121212  0.000000    0.00091827  49 t-inv F
 -0.121212  0.212121  0.000000    0.00091827  49 t-inv F
  0.090909  0.121212  0.000000    0.00091827  49 t-inv F
  0.212121 -0.090909  0.000000    0.00091827  49 t-inv F
  0.121212 -0.212121  0.000000    0.00091827  49 t-inv F
 -0.090909 -0.121212  0.000000    0.00091827  49 t-inv F
 -0.212121  0.090909  0.000000    0.00091827  49 t-inv F
 -0.090909  0.242424  0.000000    0.00091827  50 t-inv F
 -0.242424  0.151515  0.000000    0.00091827  50 t-inv F
 -0.151515 -0.090909  0.000000    0.00091827  50 t-inv F
  0.090909 -0.242424  0.000000    0.00091827  50 t-inv F
  0.242424 -0.151515  0.000000    0.00091827  50 t-inv F
 -0.151515  0.242424  0.000000    0.00091827  50 t-inv F
  0.090909  0.151515  0.000000    0.00091827  50 t-inv F
  0.242424 -0.090909  0.000000    0.00091827  50 t-inv F
  0.151515 -0.242424  0.000000    0.00091827  50 t-inv F
 -0.090909 -0.151515  0.000000    0.00091827  50 t-inv F
 -0.242424  0.090909  0.000000    0.00091827  50 t-inv F
 -0.090909  0.272727  0.000000    0.00091827  51 t-inv F
 -0.272727  0.181818  0.000000    0.00091827  51 t-inv F
 -0.181818 -0.090909  0.000000    0.00091827  51 t-inv F
  0.090909 -0.272727  0.000000    0.00091827  51 t-inv F
  0.272727 -0.181818  0.000000    0.00091827  51 t-inv F
 -0.181818  0.272727  0.000000    0.00091827  51 t-inv F
  0.090909  0.181818  0.000000    0.00091827  51 t-inv F
  0.272727 -0.090909  0.000000    0.00091827  51 t-inv F
  0.181818 -0.272727  0.000000    0.00091827  51 t-inv F
 -0.090909 -0.181818  0.000000    0.00091827  51 t-inv F
 -0.272727  0.090909  0.000000    0.00091827  51 t-inv F
 -0.090909  0.303030  0.000000    0.00091827  52 t-inv F
 -0.303030  0.212121  0.000000    0.00091827  52 t-inv F
 -0.212121 -0.090909  0.000000    0.00091827  52 t-inv F
  0.090909 -0.303030  0.000000    0.00091827  52 t-inv F
  0.303030 -0.212121  0.000000    0.00091827  52 t-inv F
 -0.212121  0.303030  0.000000    0.00091827  52 t-inv F
  0.090909  0.212121  0.000000    0.00091827  52 t-inv F
  0.303030 -0.090909  0.000000    0.00091827  52 t-inv F
  0.212121 -0.303030  0.000000    0.00091827  52 t-inv F
 -0.090909 -0.212121  0.000000    0.00091827  52 t-inv F
 -0.303030  0.090909  0.000000    0.00091827  52 t-inv F
 -0.090909  0.333333  0.000000    0.00091827  53 t-inv F
 -0.333333  0.242424  0.000000    0.00091827  53 t-inv F
 -0.242424 -0.090909  0.000000    0.00091827  53 t-inv F
  0.090909 -0.333333  0.000000    0.00091827  53 t-inv F
  0.333333 -0.242424  0.000000    0.00091827  53 t-inv F
 -0.242424  0.333333  0.000000    0.00091827  53 t-inv F
  0.090909  0.242424  0.000000    0.00091827  53 t-inv F
  0.333333 -0.090909  0.000000    0.00091827  53 t-inv F
  0.242424 -0.333333  0.000000    0.00091827  53 t-inv F
 -0.090909 -0.242424  0.000000    0.00091827  53 t-inv F
 -0.333333  0.090909  0.000000    0.00091827  53 t-inv F
 -0.090909  0.363636  0.000000    0.00091827  54 t-inv F
 -0.363636  0.272727  0.000000    0.00091827  54 t-inv F
 -0.272727 -0.090909  0.000000    0.00091827  54 t-inv F
  0.090909 -0.363636  0.000000    0.00091827  54 t-inv F
  0.363636 -0.272727  0.000000    0.00091827  54 t-inv F
 -0.272727  0.363636  0.000000    0.00091827  54 t-inv F
  0.090909  0.272727  0.000000    0.00091827  54 t-inv F
  0.363636 -0.090909  0.000000    0.00091827  54 t-inv F
  0.272727 -0.363636  0.000000    0.00091827  54 t-inv F
 -0.090909 -0.272727  0.000000    0.00091827  54 t-inv F
 -0.363636  0.090909  0.000000    0.00091827  54 t-inv F
 -0.090909  0.393939  0.000000    0.00091827  55 t-inv F
 -0.393939  0.303030  0.000000    0.00091827  55 t-inv F
 -0.303030 -0.090909  0.000000    0.00091827  55 t-inv F
  0.090909 -0.393939  0.000000    0.00091827  55 t-inv F
  0.393939 -0.303030  0.000000    0.00091827  55 t-inv F
 -0.303030  0.393939  0.000000    0.00091827  55 t-inv F
  0.090909  0.303030  0.000000    0.00091827  55 t-inv F
  0.393939 -0.090909  0.000000    0.00091827  55 t-inv F
  0.303030 -0.393939  0.000000    0.00091827  55 t-inv F
 -0.090909 -0.303030  0.000000    0.00091827  55 t-inv F
 -0.393939  0.090909  0.000000    0.00091827  55 t-inv F
 -0.090909  0.424242  0.000000    0.00091827  56 t-inv F
 -0.424242  0.333333  0.000000    0.00091827  56 t-inv F
 -0.333333 -0.090909  0.000000    0.00091827  56 t-inv F
  0.090909 -0.424242  0.000000    0.00091827  56 t-inv F
  0.424242 -0.333333  0.000000    0.00091827  56 t-inv F
 -0.333333  0.424242  0.000000    0.00091827  56 t-inv F
  0.090909  0.333333  0.000000    0.00091827  56 t-inv F
  0.424242 -0.090909  0.000000    0.00091827  56 t-inv F
  0.333333 -0.424242  0.000000    0.00091827  56 t-inv F
 -0.090909 -0.333333  0.000000    0.00091827  56 t-inv F
 -0.424242  0.090909  0.000000    0.00091827  56 t-inv F
 -0.090909  0.454545  0.000000    0.00091827  57 t-inv F
 -0.454545  0.363636  0.000000    0.00091827  57 t-inv F
 -0.363636 -0.090909  0.000000    0.00091827  57 t-inv F
  0.090909 -0.454545  0.000000    0.00091827  57 t-inv F
  0.454545 -0.363636  0.000000    0.00091827  57 t-inv F
 -0.363636  0.454545  0.000000    0.00091827  57 t-inv F
  0.090909  0.363636  0.000000    0.00091827  57 t-inv F
  0.454545 -0.090909  0.000000    0.00091827  57 t-inv F
  0.363636 -0.454545  0.000000    0.00091827  57 t-inv F
 -0.090909 -0.363636  0.000000    0.00091827  57 t-inv F
 -0.454545  0.090909  0.000000    0.00091827  57 t-inv F
 -0.090909  0.484848  0.000000    0.00091827  58 t-inv F
 -0.484848  0.393939  0.000000    0.00091827  58 t-inv F
 -0.393939 -0.090909  0.000000    0.00091827  58 t-inv F
  0.090909 -0.484848  0.000000    0.00091827  58 t-inv F
  0.484848 -0.393939  0.000000    0.00091827  58 t-inv F
 -0.393939  0.484848  0.000000    0.00091827  58 t-inv F
  0.090909  0.393939  0.000000    0.00091827  58 t-inv F
  0.484848 -0.090909  0.000000    0.00091827  58 t-inv F
  0.393939 -0.484848  0.000000    0.00091827  58 t-inv F
 -0.090909 -0.393939  0.000000    0.00091827  58 t-inv F
 -0.484848  0.090909  0.000000    0.00091827  58 t-inv F
 -0.090909  0.515152  0.000000    0.00091827  59 t-inv F
 -0.515152  0.424242  0.000000    0.00091827  59 t-inv F
 -0.424242 -0.090909  0.000000    0.00091827  59 t-inv F
  0.090909 -0.515152  0.000000    0.00091827  59 t-inv F
  0.515152 -0.424242  0.000000    0.00091827  59 t-inv F
 -0.424242  0.515152  0.000000    0.00091827  59 t-inv F
  0.090909  0.424242  0.000000    0.00091827  59 t-inv F
  0.515152 -0.090909  0.000000    0.00091827  59 t-inv F
  0.424242 -0.515152  0.000000    0.00091827  59 t-inv F
 -0.090909 -0.424242  0.000000    0.00091827  59 t-inv F
 -0.515152  0.090909  0.000000    0.00091827  59 t-inv F
 -0.090909  0.545455  0.000000    0.00091827  60 t-inv F
 -0.545455  0.454545  0.000000    0.00091827  60 t-inv F
 -0.454545 -0.090909  0.000000    0.00091827  60 t-inv F
  0.090909 -0.545455  0.000000    0.00091827  60 t-inv F
  0.545455 -0.454545  0.000000    0.00091827  60 t-inv F
 -0.121212  0.242424  0.000000    0.00091827  61 t-inv F
 -0.242424  0.121212  0.000000    0.00091827  61 t-inv F
 -0.121212 -0.121212  0.000000    0.00091827  61 t-inv F
  0.121212 -0.242424  0.000000    0.00091827  61 t-inv F
  0.242424 -0.121212  0.000000    0.00091827  61 t-inv F
 -0.121212  0.272727  0.000000    0.00091827  62 t-inv F
 -0.272727  0.151515  0.000000    0.00091827  62 t-inv F
 -0.151515 -0.121212  0.000000    0.00091827  62 t-inv F
  0.121212 -0.272727  0.000000    0.00091827  62 t-inv F
  0.272727 -0.151515  0.000000    0.00091827  62 t-inv F
 -0.151515  0.272727  0.000000    0.00091827  62 t-inv F
  0.121212  0.151515  0.000000    0.00091827  62 t-inv F
  0.272727 -0.121212  0.000000    0.00091827  62 t-inv F
  0.151515 -0.272727  0.000000    0.00091827  62 t-inv F
 -0.121212 -0.151515  0.000000    0.00091827  62 t-inv F
 -0.272727  0.121212  0.000000    0.00091827  62 t-inv F
 -0.121212  0.303030  0.000000    0.00091827  63 t-inv F
 -0.303030  0.181818  0.000000    0.00091827  63 t-inv F
 -0.181818 -0.121212  0.000000    0.00091827  63 t-inv F
  0.121212 -0.303030  0.000000    0.00091827  63 t-inv F
  0.303030 -0.181818  0.000000    0.00091827  63 t-inv F
 -0.181818  0.303030  0.000000    0.00091827  63 t-inv F
  0.121212  0.181818  0.000000    0.00091827  63 t-inv F
  0.303030 -0.121212  0.000000    0.00091827  63 t-inv F
  0.181818 -0.303030  0.000000    0.00091827  63 t-inv F
 -0.121212 -0.181818  0.000000    0.00091827  63 t-inv F
 -0.303030  0.121212  0.000000    0.00091827  63 t-inv F
 -0.121212  0.333333  0.000000    0.00091827  64 t-inv F
 -0.333333  0.212121  0.000000    0.00091827  64 t-inv F
 -0.212121 -0.121212  0.000000    0.00091827  64 t-inv F
  0.121212 -0.333333  0.000000    0.00091827  64 t-inv F
  0.333333 -0.212121  0.000000    0.00091827  64 t-inv F
 -0.212121  0.333333  0.000000    0.00091827  64 t-inv F
  0.121212  0.212121  0.000000    0.00091827  64 t-inv F
  0.333333 -0.121212  0.000000    0.00091827  64 t-inv F
  0.212121 -0.333333  0.000000    0.00091827  64 t-inv F
 -0.121212 -0.212121  0.000000    0.00091827  64 t-inv F
 -0.333333  0.121212  0.000000    0.00091827  64 t-inv F
 -0.121212  0.363636  0.000000    0.00091827  65 t-inv F
 -0.363636  0.242424  0.000000    0.00091827  65 t-inv F
 -0.242424 -0.121212  0.000000    0.00091827  65 t-inv F
  0.121212 -0.363636  0.000000    0.00091827  65 t-inv F
  0.363636 -0.242424  0.000000    0.00091827  65 t-inv F
 -0.242424  0.363636  0.000000    0.00091827  65 t-inv F
  0.121212  0.242424  0.000000    0.00091827  65 t-inv F
  0.363636 -0.121212  0.000000    0.00091827  65 t-inv F
  0.242424 -0.363636  0.000000    0.00091827  65 t-inv F
 -0.121212 -0.242424  0.000000    0.00091827  65 t-inv F
 -0.363636  0.121212  0.000000    0.00091827  65 t-inv F
 -0.121212  0.393939  0.000000    0.00091827  66 t-inv F
 -0.393939  0.272727  0.000000    0.00091827  66 t-inv F
 -0.272727 -0.121212  0.000000    0.00091827  66 t-inv F
  0.121212 -0.393939  0.000000    0.00091827  66 t-inv F
  0.393939 -0.272727  0.000000    0.00091827  66 t-inv F
 -0.272727  0.393939  0.000000    0.00091827  66 t-inv F
  0.121212  0.272727  0.000000    0.00091827  66 t-inv F
  0.393939 -0.121212  0.000000    0.00091827  66 t-inv F
  0.272727 -0.393939  0.000000    0.00091827  66 t-inv F
 -0.121212 -0.272727  0.000000    0.00091827  66 t-inv F
 -0.393939  0.121212  0.000000    0.00091827  66 t-inv F
 -0.121212  0.424242  0.000000    0.00091827  67 t-inv F
 -0.424242  0.303030  0.000000    0.00091827  67 t-inv F
 -0.303030 -0.121212  0.000000    0.00091827  67 t-inv F
  0.121212 -0.424242  0.000000    0.00091827  67 t-inv F
  0.424242 -0.303030  0.000000    0.00091827  67 t-inv F
 -0.303030  0.424242  0.000000    0.00091827  67 t-inv F
  0.121212  0.303030  0.000000    0.00091827  67 t-inv F
  0.424242 -0.121212  0.000000    0.00091827  67 t-inv F
  0.303030 -0.424242  0.000000    0.00091827  67 t-inv F
 -0.121212 -0.303030  0.000000    0.00091827  67 t-inv F
 -0.424242  0.121212  0.000000    0.00091827  67 t-inv F
 -0.121212  0.454545  0.000000    0.00091827  68 t-inv F
 -0.454545  0.333333  0.000000    0.00091827  68 t-inv F
 -0.333333 -0.121212  0.000000    0.00091827  68 t-inv F
  0.121212 -0.454545  0.000000    0.00091827  68 t-inv F
  0.454545 -0.333333  0.000000    0.00091827  68 t-inv F
 -0.333333  0.454545  0.000000    0.00091827  68 t-inv F
  0.121212  0.333333  0.000000    0.00091827  68 t-inv F
  0.454545 -0.121212  0.000000    0.00091827  68 t-inv F
  0.333333 -0.454545  0.000000    0.00091827  68 t-inv F
 -0.121212 -0.333333  0.000000    0.00091827  68 t-inv F
 -0.454545  0.121212  0.000000    0.00091827  68 t-inv F
 -0.121212  0.484848  0.000000    0.00091827  69 t-inv F
 -0.484848  0.363636  0.000000    0.00091827  69 t-inv F
 -0.363636 -0.121212  0.000000    0.00091827  69 t-inv F
  0.121212 -0.484848  0.000000    0.00091827  69 t-inv F
  0.484848 -0.363636  0.000000    0.00091827  69 t-inv F
 -0.363636  0.484848  0.000000    0.00091827  69 t-inv F
  0.121212  0.363636  0.000000    0.00091827  69 t-inv F
  0.484848 -0.121212  0.000000    0.00091827  69 t-inv F
  0.363636 -0.484848  0.000000    0.00091827  69 t-inv F
 -0.121212 -0.363636  0.000000    0.00091827  69 t-inv F
 -0.484848  0.121212  0.000000    0.00091827  69 t-inv F
 -0.121212  0.515152  0.000000    0.00091827  70 t-inv F
 -0.515152  0.393939  0.000000    0.00091827  70 t-inv F
 -0.393939 -0.121212  0.000000    0.00091827  70 t-inv F
  0.121212 -0.515152  0.000000    0.00091827  70 t-inv F
  0.515152 -0.393939  0.000000    0.00091827  70 t-inv F
 -0.393939  0.515152  0.000000    0.00091827  70 t-inv F
  0.121212  0.393939  0.000000    0.00091827  70 t-inv F
  0.515152 -0.121212  0.000000    0.00091827  70 t-inv F
  0.393939 -0.515152  0.000000    0.00091827  70 t-inv F
 -0.121212 -0.393939  0.000000    0.00091827  70 t-inv F
 -0.515152  0.121212  0.000000    0.00091827  70 t-inv F
 -0.121212  0.545455  0.000000    0.00091827  71 t-inv F
 -0.545455  0.424242  0.000000    0.00091827  71 t-inv F
 -0.424242 -0.121212  0.000000    0.00091827  71 t-inv F
  0.121212 -0.545455  0.000000    0.00091827  71 t-inv F
  0.545455 -0.424242  0.000000    0.00091827  71 t-inv F
 -0.424242  0.545455  0.000000    0.00091827  71 t-inv F
  0.121212  0.424242  0.000000    0.00091827  71 t-inv F
  0.545455 -0.121212  0.000000    0.00091827  71 t-inv F
  0.424242 -0.545455  0.000000    0.00091827  71 t-inv F
 -0.121212 -0.424242  0.000000    0.00091827  71 t-inv F
 -0.545455  0.121212  0.000000    0.00091827  71 t-inv F
 -0.151515  0.303030  0.000000    0.00091827  72 t-inv F
 -0.303030  0.151515  0.000000    0.00091827  72 t-inv F
 -0.151515 -0.151515  0.000000    0.00091827  72 t-inv F
  0.151515 -0.303030  0.000000    0.00091827  72 t-inv F
  0.303030 -0.151515  0.000000    0.00091827  72 t-inv F
 -0.151515  0.333333  0.000000    0.00091827  73 t-inv F
 -0.333333  0.181818  0.000000    0.00091827  73 t-inv F
 -0.181818 -0.151515  0.000000    0.00091827  73 t-inv F
  0.151515 -0.333333  0.000000    0.00091827  73 t-inv F
  0.333333 -0.181818  0.000000    0.00091827  73 t-inv F
 -0.181818  0.333333  0.000000    0.00091827  73 t-inv F
  0.151515  0.181818  0.000000    0.00091827  73 t-inv F
  0.333333 -0.151515  0.000000    0.00091827  73 t-inv F
  0.181818 -0.333333  0.000000    0.00091827  73 t-inv F
 -0.151515 -0.181818  0.000000    0.00091827  73 t-inv F
 -0.333333  0.151515  0.000000    0.00091827  73 t-inv F
 -0.151515  0.363636  0.000000    0.00091827  74 t-inv F
 -0.363636  0.212121  0.000000    0.00091827  74 t-inv F
 -0.212121 -0.151515  0.000000    0.00091827  74 t-inv F
  0.151515 -0.363636  0.000000    0.00091827  74 t-inv F
  0.363636 -0.212121  0.000000    0.00091827  74 t-inv F
 -0.212121  0.363636  0.000000    0.00091827  74 t-inv F
  0.151515  0.212121  0.000000    0.00091827  74 t-inv F
  0.363636 -0.151515  0.000000    0.00091827  74 t-inv F
  0.212121 -0.363636  0.000000    0.00091827  74 t-inv F
 -0.151515 -0.212121  0.000000    0.00091827  74 t-inv F
 -0.363636  0.151515  0.000000    0.00091827  74 t-inv F
 -0.151515  0.393939  0.000000    0.00091827  75 t-inv F
 -0.393939  0.242424  0.000000    0.00091827  75 t-inv F
 -0.242424 -0.151515  0.000000    0.00091827  75 t-inv F
  0.151515 -0.393939  0.000000    0.00091827  75 t-inv F
  0.393939 -0.242424  0.000000    0.00091827  75 t-inv F
 -0.242424  0.393939  0.000000    0.00091827  75 t-inv F
  0.151515  0.242424  0.000000    0.00091827  75 t-inv F
  0.393939 -0.151515  0.000000    0.00091827  75 t-inv F
  0.242424 -0.393939  0.000000    0.00091827  75 t-inv F
 -0.151515 -0.242424  0.000000    0.00091827  75 t-inv F
 -0.393939  0.151515  0.000000    0.00091827  75 t-inv F
 -0.151515  0.424242  0.000000    0.00091827  76 t-inv F
 -0.424242  0.272727  0.000000    0.00091827  76 t-inv F
 -0.272727 -0.151515  0.000000    0.00091827  76 t-inv F
  0.151515 -0.424242  0.000000    0.00091827  76 t-inv F
  0.424242 -0.272727  0.000000    0.00091827  76 t-inv F
 -0.272727  0.424242  0.000000    0.00091827  76 t-inv F
  0.151515  0.272727  0.000000    0.00091827  76 t-inv F
  0.424242 -0.151515  0.000000    0.00091827  76 t-inv F
  0.272727 -0.424242  0.000000    0.00091827  76 t-inv F
 -0.151515 -0.272727  0.000000    0.00091827  76 t-inv F
 -0.424242  0.151515  0.000000    0.00091827  76 t-inv F
 -0.151515  0.454545  0.000000    0.00091827  77 t-inv F
 -0.454545  0.303030  0.000000    0.00091827  77 t-inv F
 -0.303030 -0.151515  0.000000    0.00091827  77 t-inv F
  0.151515 -0.454545  0.000000    0.00091827  77 t-inv F
  0.454545 -0.303030  0.000000    0.00091827  77 t-inv F
 -0.303030  0.454545  0.000000    0.00091827  77 t-inv F
  0.151515  0.303030  0.000000    0.00091827  77 t-inv F
  0.454545 -0.151515  0.000000    0.00091827  77 t-inv F
  0.303030 -0.454545  0.000000    0.00091827  77 t-inv F
 -0.151515 -0.303030  0.000000    0.00091827  77 t-inv F
 -0.454545  0.151515  0.000000    0.00091827  77 t-inv F
 -0.151515  0.484848  0.000000    0.00091827  78 t-inv F
 -0.484848  0.333333  0.000000    0.00091827  78 t-inv F
 -0.333333 -0.151515  0.000000    0.00091827  78 t-inv F
  0.151515 -0.484848  0.000000    0.00091827  78 t-inv F
  0.484848 -0.333333  0.000000    0.00091827  78 t-inv F
 -0.333333  0.484848  0.000000    0.00091827  78 t-inv F
  0.151515  0.333333  0.000000    0.00091827  78 t-inv F
  0.484848 -0.151515  0.000000    0.00091827  78 t-inv F
  0.333333 -0.484848  0.000000    0.00091827  78 t-inv F
 -0.151515 -0.333333  0.000000    0.00091827  78 t-inv F
 -0.484848  0.151515  0.000000    0.00091827  78 t-inv F
 -0.151515  0.515152  0.000000    0.00091827  79 t-inv F
 -0.515152  0.363636  0.000000    0.00091827  79 t-inv F
 -0.363636 -0.151515  0.000000    0.00091827  79 t-inv F
  0.151515 -0.515152  0.000000    0.00091827  79 t-inv F
  0.515152 -0.363636  0.000000    0.00091827  79 t-inv F
 -0.363636  0.515152  0.000000    0.00091827  79 t-inv F
  0.151515  0.363636  0.000000    0.00091827  79 t-inv F
  0.515152 -0.151515  0.000000    0.00091827  79 t-inv F
  0.363636 -0.515152  0.000000    0.00091827  79 t-inv F
 -0.151515 -0.363636  0.000000    0.00091827  79 t-inv F
 -0.515152  0.151515  0.000000    0.00091827  79 t-inv F
 -0.151515  0.545455  0.000000    0.00091827  80 t-inv F
 -0.545455  0.393939  0.000000    0.00091827  80 t-inv F
 -0.393939 -0.151515  0.000000    0.00091827  80 t-inv F
  0.151515 -0.545455  0.000000    0.00091827  80 t-inv F
  0.545455 -0.393939  0.000000    0.00091827  80 t-inv F
 -0.393939  0.545455  0.000000    0.00091827  80 t-inv F
  0.151515  0.393939  0.000000    0.00091827  80 t-inv F
  0.545455 -0.151515  0.000000    0.00091827  80 t-inv F
  0.393939 -0.545455  0.000000    0.00091827  80 t-inv F
 -0.151515 -0.393939  0.000000    0.00091827  80 t-inv F
 -0.545455  0.151515  0.000000    0.00091827  80 t-inv F
 -0.151515  0.575758  0.000000    0.00091827  81 t-inv F
 -0.575758  0.424242  0.000000    0.00091827  81 t-inv F
 -0.424242 -0.151515  0.000000    0.00091827  81 t-inv F
  0.151515 -0.575758  0.000000    0.00091827  81 t-inv F
  0.575758 -0.424242  0.000000    0.00091827  81 t-inv F
 -0.181818  0.363636  0.000000    0.00091827  82 t-inv F
 -0.363636  0.181818  0.000000    0.00091827  82 t-inv F
 -0.181818 -0.181818  0.000000    0.00091827  82 t-inv F
  0.181818 -0.363636  0.000000    0.00091827  82 t-inv F
  0.363636 -0.181818  0.000000    0.00091827  82 t-inv F
 -0.181818  0.393939  0.000000    0.00091827  83 t-inv F
 -0.393939  0.212121  0.000000    0.00091827  83 t-inv F
 -0.212121 -0.181818  0.000000    0.00091827  83 t-inv F
  0.181818 -0.393939  0.000000    0.00091827  83 t-inv F
  0.393939 -0.212121  0.000000    0.00091827  83 t-inv F
 -0.212121  0.393939  0.000000    0.00091827  83 t-inv F
  0.181818  0.212121  0.000000    0.00091827  83 t-inv F
  0.393939 -0.181818  0.000000    0.00091827  83 t-inv F
  0.212121 -0.393939  0.000000    0.00091827  83 t-inv F
 -0.181818 -0.212121  0.000000    0.00091827  83 t-inv F
 -0.393939  0.181818  0.000000    0.00091827  83 t-inv F
 -0.181818  0.424242  0.000000    0.00091827  84 t-inv F
 -0.424242  0.242424  0.000000    0.00091827  84 t-inv F
 -0.242424 -0.181818  0.000000    0.00091827  84 t-inv F
  0.181818 -0.424242  0.000000    0.00091827  84 t-inv F
  0.424242 -0.242424  0.000000    0.00091827  84 t-inv F
 -0.242424  0.424242  0.000000    0.00091827  84 t-inv F
  0.181818  0.242424  0.000000    0.00091827  84 t-inv F
  0.424242 -0.181818  0.000000    0.00091827  84 t-inv F
  0.242424 -0.424242  0.000000    0.00091827  84 t-inv F
 -0.181818 -0.242424  0.000000    0.00091827  84 t-inv F
 -0.424242  0.181818  0.000000    0.00091827  84 t-inv F
 -0.181818  0.454545  0.000000    0.00091827  85 t-inv F
 -0.454545  0.272727  0.000000    0.00091827  85 t-inv F
 -0.272727 -0.181818  0.000000    0.00091827  85 t-inv F
  0.181818 -0.454545  0.000000    0.00091827  85 t-inv F
  0.454545 -0.272727  0.000000    0.00091827  85 t-inv F
 -0.272727  0.454545  0.000000    0.00091827  85 t-inv F
  0.181818  0.272727  0.000000    0.00091827  85 t-inv F
  0.454545 -0.181818  0.000000    0.00091827  85 t-inv F
  0.272727 -0.454545  0.000000    0.00091827  85 t-inv F
 -0.181818 -0.272727  0.000000    0.00091827  85 t-inv F
 -0.454545  0.181818  0.000000    0.00091827  85 t-inv F
 -0.181818  0.484848  0.000000    0.00091827  86 t-inv F
 -0.484848  0.303030  0.000000    0.00091827  86 t-inv F
 -0.303030 -0.181818  0.000000    0.00091827  86 t-inv F
  0.181818 -0.484848  0.000000    0.00091827  86 t-inv F
  0.484848 -0.303030  0.000000    0.00091827  86 t-inv F
 -0.303030  0.484848  0.000000    0.00091827  86 t-inv F
  0.181818  0.303030  0.000000    0.00091827  86 t-inv F
  0.484848 -0.181818  0.000000    0.00091827  86 t-inv F
  0.303030 -0.484848  0.000000    0.00091827  86 t-inv F
 -0.181818 -0.303030  0.000000    0.00091827  86 t-inv F
 -0.484848  0.181818  0.000000    0.00091827  86 t-inv F
 -0.181818  0.515152  0.000000    0.00091827  87 t-inv F
 -0.515152  0.333333  0.000000    0.00091827  87 t-inv F
 -0.333333 -0.181818  0.000000    0.00091827  87 t-inv F
  0.181818 -0.515152  0.000000    0.00091827  87 t-inv F
  0.515152 -0.333333  0.000000    0.00091827  87 t-inv F
 -0.333333  0.515152  0.000000    0.00091827  87 t-inv F
  0.181818  0.333333  0.000000    0.00091827  87 t-inv F
  0.515152 -0.181818  0.000000    0.00091827  87 t-inv F
  0.333333 -0.515152  0.000000    0.00091827  87 t-inv F
 -0.181818 -0.333333  0.000000    0.00091827  87 t-inv F
 -0.515152  0.181818  0.000000    0.00091827  87 t-inv F
 -0.181818  0.545455  0.000000    0.00091827  88 t-inv F
 -0.545455  0.363636  0.000000    0.00091827  88 t-inv F
 -0.363636 -0.181818  0.000000    0.00091827  88 t-inv F
  0.181818 -0.545455  0.000000    0.00091827  88 t-inv F
  0.545455 -0.363636  0.000000    0.00091827  88 t-inv F
 -0.363636  0.545455  0.000000    0.00091827  88 t-inv F
  0.181818  0.363636  0.000000    0.00091827  88 t-inv F
  0.545455 -0.181818  0.000000    0.00091827  88 t-inv F
  0.363636 -0.545455  0.000000    0.00091827  88 t-inv F
 -0.181818 -0.363636  0.000000    0.00091827  88 t-inv F
 -0.545455  0.181818  0.000000    0.00091827  88 t-inv F
 -0.181818  0.575758  0.000000    0.00091827  89 t-inv F
 -0.575758  0.393939  0.000000    0.00091827  89 t-inv F
 -0.393939 -0.181818  0.000000    0.00091827  89 t-inv F
  0.181818 -0.575758  0.000000    0.00091827  89 t-inv F
  0.575758 -0.393939  0.000000    0.00091827  89 t-inv F
 -0.393939  0.575758  0.000000    0.00091827  89 t-inv F
  0.181818  0.393939  0.000000    0.00091827  89 t-inv F
  0.575758 -0.181818  0.000000    0.00091827  89 t-inv F
  0.393939 -0.575758  0.000000    0.00091827  89 t-inv F
 -0.181818 -0.393939  0.000000    0.00091827  89 t-inv F
 -0.575758  0.181818  0.000000    0.00091827  89 t-inv F
 -0.212121  0.424242  0.000000    0.00091827  90 t-inv F
 -0.424242  0.212121  0.000000    0.00091827  90 t-inv F
 -0.212121 -0.212121  0.000000    0.00091827  90 t-inv F
  0.212121 -0.424242  0.000000    0.00091827  90 t-inv F
  0.424242 -0.212121  0.000000    0.00091827  90 t-inv F
 -0.212121  0.454545  0.000000    0.00091827  91 t-inv F
 -0.454545  0.242424  0.000000    0.00091827  91 t-inv F
 -0.242424 -0.212121  0.000000    0.00091827  91 t-inv F
  0.212121 -0.454545  0.000000    0.00091827  91 t-inv F
  0.454545 -0.242424  0.000000    0.00091827  91 t-inv F
 -0.242424  0.454545  0.000000    0.00091827  91 t-inv F
  0.212121  0.242424  0.000000    0.00091827  91 t-inv F
  0.454545 -0.212121  0.000000    0.00091827  91 t-inv F
  0.242424 -0.454545  0.000000    0.00091827  91 t-inv F
 -0.212121 -0.242424  0.000000    0.00091827  91 t-inv F
 -0.454545  0.212121  0.000000    0.00091827  91 t-inv F
 -0.212121  0.484848  0.000000    0.00091827  92 t-inv F
 -0.484848  0.272727  0.000000    0.00091827  92 t-inv F
 -0.272727 -0.212121  0.000000    0.00091827  92 t-inv F
  0.212121 -0.484848  0.000000    0.00091827  92 t-inv F
  0.484848 -0.272727  0.000000    0.00091827  92 t-inv F
 -0.272727  0.484848  0.000000    0.00091827  92 t-inv F
  0.212121  0.272727  0.000000    0.00091827  92 t-inv F
  0.484848 -0.212121  0.000000    0.00091827  92 t-inv F
  0.272727 -0.484848  0.000000    0.00091827  92 t-inv F
 -0.212121 -0.272727  0.000000    0.00091827  92 t-inv F
 -0.484848  0.212121  0.000000    0.00091827  92 t-inv F
 -0.212121  0.515152  0.000000    0.00091827  93 t-inv F
 -0.515152  0.303030  0.000000    0.00091827  93 t-inv F
 -0.303030 -0.212121  0.000000    0.00091827  93 t-inv F
  0.212121 -0.515152  0.000000    0.00091827  93 t-inv F
  0.515152 -0.303030  0.000000    0.00091827  93 t-inv F
 -0.303030  0.515152  0.000000    0.00091827  93 t-inv F
  0.212121  0.303030  0.000000    0.00091827  93 t-inv F
  0.515152 -0.212121  0.000000    0.00091827  93 t-inv F
  0.303030 -0.515152  0.000000    0.00091827  93 t-inv F
 -0.212121 -0.303030  0.000000    0.00091827  93 t-inv F
 -0.515152  0.212121  0.000000    0.00091827  93 t-inv F
 -0.212121  0.545455  0.000000    0.00091827  94 t-inv F
 -0.545455  0.333333  0.000000    0.00091827  94 t-inv F
 -0.333333 -0.212121  0.000000    0.00091827  94 t-inv F
  0.212121 -0.545455  0.000000    0.00091827  94 t-inv F
  0.545455 -0.333333  0.000000    0.00091827  94 t-inv F
 -0.333333  0.545455  0.000000    0.00091827  94 t-inv F
  0.212121  0.333333  0.000000    0.00091827  94 t-inv F
  0.545455 -0.212121  0.000000    0.00091827  94 t-inv F
  0.333333 -0.545455  0.000000    0.00091827  94 t-inv F
 -0.212121 -0.333333  0.000000    0.00091827  94 t-inv F
 -0.545455  0.212121  0.000000    0.00091827  94 t-inv F
 -0.212121  0.575758  0.000000    0.00091827  95 t-inv F
 -0.575758  0.363636  0.000000    0.00091827  95 t-inv F
 -0.363636 -0.212121  0.000000    0.00091827  95 t-inv F
  0.212121 -0.575758  0.000000    0.00091827  95 t-inv F
  0.575758 -0.363636  0.000000    0.00091827  95 t-inv F
 -0.363636  0.575758  0.000000    0.00091827  95 t-inv F
  0.212121  0.363636  0.000000    0.00091827  95 t-inv F
  0.575758 -0.212121  0.000000    0.00091827  95 t-inv F
  0.363636 -0.575758  0.000000    0.00091827  95 t-inv F
 -0.212121 -0.363636  0.000000    0.00091827  95 t-inv F
 -0.575758  0.212121  0.000000    0.00091827  95 t-inv F
 -0.212121  0.606061  0.000000    0.00091827  96 t-inv F
 -0.606061  0.393939  0.000000    0.00091827  96 t-inv F
 -0.393939 -0.212121  0.000000    0.00091827  96 t-inv F
  0.212121 -0.606061  0.000000    0.00091827  96 t-inv F
  0.606061 -0.393939  0.000000    0.00091827  96 t-inv F
 -0.242424  0.484848  0.000000    0.00091827  97 t-inv F
 -0.484848  0.242424  0.000000    0.00091827  97 t-inv F
 -0.242424 -0.242424  0.000000    0.00091827  97 t-inv F
  0.242424 -0.484848  0.000000    0.00091827  97 t-inv F
  0.484848 -0.242424  0.000000    0.00091827  97 t-inv F
 -0.242424  0.515152  0.000000    0.00091827  98 t-inv F
 -0.515152  0.272727  0.000000    0.00091827  98 t-inv F
 -0.272727 -0.242424  0.000000    0.00091827  98 t-inv F
  0.242424 -0.515152  0.000000    0.00091827  98 t-inv F
  0.515152 -0.272727  0.000000    0.00091827  98 t-inv F
 -0.272727  0.515152  0.000000    0.00091827  98 t-inv F
  0.242424  0.272727  0.000000    0.00091827  98 t-inv F
  0.515152 -0.242424  0.000000    0.00091827  98 t-inv F
  0.272727 -0.515152  0.000000    0.00091827  98 t-inv F
 -0.242424 -0.272727  0.000000    0.00091827  98 t-inv F
 -0.515152  0.242424  0.000000    0.00091827  98 t-inv F
 -0.242424  0.545455  0.000000    0.00091827  99 t-inv F
 -0.545455  0.303030  0.000000    0.00091827  99 t-inv F
 -0.303030 -0.242424  0.000000    0.00091827  99 t-inv F
  0.242424 -0.545455  0.000000    0.00091827  99 t-inv F
  0.545455 -0.303030  0.000000    0.00091827  99 t-inv F
 -0.303030  0.545455  0.000000    0.00091827  99 t-inv F
  0.242424  0.303030  0.000000    0.00091827  99 t-inv F
  0.545455 -0.242424  0.000000    0.00091827  99 t-inv F
  0.303030 -0.545455  0.000000    0.00091827  99 t-inv F
 -0.242424 -0.303030  0.000000    0.00091827  99 t-inv F
 -0.545455  0.242424  0.000000    0.00091827  99 t-inv F
 -0.242424  0.575758  0.000000    0.00091827 100 t-inv F
 -0.575758  0.333333  0.000000    0.00091827 100 t-inv F
 -0.333333 -0.242424  0.000000    0.00091827 100 t-inv F
  0.242424 -0.575758  0.000000    0.00091827 100 t-inv F
  0.575758 -0.333333  0.000000    0.00091827 100 t-inv F
 -0.333333  0.575758  0.000000    0.00091827 100 t-inv F
  0.242424  0.333333  0.000000    0.00091827 100 t-inv F
  0.575758 -0.242424  0.000000    0.00091827 100 t-inv F
  0.333333 -0.575758  0.000000    0.00091827 100 t-inv F
 -0.242424 -0.333333  0.000000    0.00091827 100 t-inv F
 -0.575758  0.242424  0.000000    0.00091827 100 t-inv F
 -0.242424  0.606061  0.000000    0.00091827 101 t-inv F
 -0.606061  0.363636  0.000000    0.00091827 101 t-inv F
 -0.363636 -0.242424  0.000000    0.00091827 101 t-inv F
  0.242424 -0.606061  0.000000    0.00091827 101 t-inv F
  0.606061 -0.363636  0.000000    0.00091827 101 t-inv F
 -0.363636  0.606061  0.000000    0.00091827 101 t-inv F
  0.242424  0.363636  0.000000    0.00091827 101 t-inv F
  0.606061 -0.242424  0.000000    0.00091827 101 t-inv F
  0.363636 -0.606061  0.000000    0.00091827 101 t-inv F
 -0.242424 -0.363636  0.000000    0.00091827 101 t-inv F
 -0.606061  0.242424  0.000000    0.00091827 101 t-inv F
 -0.272727  0.545455  0.000000    0.00091827 102 t-inv F
 -0.545455  0.272727  0.000000    0.00091827 102 t-inv F
 -0.272727 -0.272727  0.000000    0.00091827 102 t-inv F
  0.272727 -0.545455  0.000000    0.00091827 102 t-inv F
  0.545455 -0.272727  0.000000    0.00091827 102 t-inv F
 -0.272727  0.575758  0.000000    0.00091827 103 t-inv F
 -0.575758  0.303030  0.000000    0.00091827 103 t-inv F
 -0.303030 -0.272727  0.000000    0.00091827 103 t-inv F
  0.272727 -0.575758  0.000000    0.00091827 103 t-inv F
  0.575758 -0.303030  0.000000    0.00091827 103 t-inv F
[...]
     90      88.1085      0.00000
     91      88.5348      0.00000
     92      90.8355      0.00000
     93      91.3462      0.00000
     94      91.7402      0.00000
     95      94.9498      0.00000
     96      95.9397      0.00000

 k-point   105 :       0.3636    0.2727    0.0000
  band No.  band energies     occupation 
      1     -17.4626      2.00000
      2     -16.5753      2.00000
      3     -13.9517      2.00000
      4      -3.2726      2.00000
      5      -1.4267      0.00000
      6       8.9661      0.00000
      7      10.6906      0.00000
      8      10.8691      0.00000
      9      11.4234      0.00000
     10      11.9713      0.00000
     11      12.4003      0.00000
     12      12.4541      0.00000
     13      12.5778      0.00000
     14      14.2885      0.00000
     15      14.3537      0.00000
     16      14.6023      0.00000
     17      14.6635      0.00000
     18      14.7916      0.00000
     19      15.5799      0.00000
     20      15.7857      0.00000
     21      16.4181      0.00000
     22      17.4905      0.00000
     23      17.5948      0.00000
     24      18.2347      0.00000
     25      18.5901      0.00000
     26      19.3489      0.00000
     27      19.8894      0.00000
     28      20.8620      0.00000
     29      21.6554      0.00000
     30      22.7878      0.00000
     31      23.5390      0.00000
     32      24.3037      0.00000
     33      24.6905      0.00000
     34      25.5065      0.00000
     35      25.9307      0.00000
     36      27.2418      0.00000
     37      28.4130      0.00000
     38      30.1050      0.00000
     39      30.8637      0.00000
     40      32.4458      0.00000
     41      32.8063      0.00000
     42      33.8537      0.00000
     43      35.3634      0.00000
     44      35.4053      0.00000
     45      36.9450      0.00000
     46      40.3842      0.00000
     47      40.4819      0.00000
     48      41.0784      0.00000
     49      47.5686      0.00000
     50      48.7351      0.00000
     51      49.4762      0.00000
     52      49.8728      0.00000
     53      51.0666      0.00000
     54      51.2499      0.00000
     55      52.8878      0.00000
     56      54.0296      0.00000
     57      55.0532      0.00000
     58      55.3888      0.00000
     59      55.6935      0.00000
     60      56.2439      0.00000
     61      56.5643      0.00000
     62      56.5663      0.00000
     63      57.3534      0.00000
     64      59.1363      0.00000
     65      60.1630      0.00000
     66      60.1793      0.00000
     67      61.3273      0.00000
     68      61.7828      0.00000
     69      62.5095      0.00000
     70      65.5146      0.00000
     71      65.6563      0.00000
     72      67.8316      0.00000
     73      68.9094      0.00000
     74      69.7977      0.00000
     75      70.5896      0.00000
     76      71.6966      0.00000
     77      72.0143      0.00000
     78      72.7876      0.00000
     79      72.9592      0.00000
     80      75.0855      0.00000
     81      76.7997      0.00000
     82      78.5042      0.00000
     83      78.8180      0.00000
     84      79.2452      0.00000
     85      79.2992      0.00000
     86      80.7696      0.00000
     87      81.3537      0.00000
     88      82.2158      0.00000
     89      82.6293      0.00000
     90      87.1045      0.00000
     91      87.7138      0.00000
     92      87.9341      0.00000
     93      89.8991      0.00000
     94      90.1097      0.00000
     95      91.3852      0.00000
     96      94.3238      0.00000

 k-point   106 :       0.3030    0.3030    0.0000
  band No.  band energies     occupation 
      1     -17.7768      2.00000
      2     -16.1178      2.00000
      3     -14.0852      2.00000
      4      -3.4482      2.00000
      5      -1.2231      0.00000
      6       8.8986      0.00000
      7       9.9310      0.00000
      8      11.3781      0.00000
      9      11.4603      0.00000
     10      11.6850      0.00000
     11      11.8500      0.00000
     12      13.5105      0.00000
     13      13.7971      0.00000
     14      13.9389      0.00000
     15      14.0021      0.00000
     16      14.1210      0.00000
     17      14.6638      0.00000
     18      14.9903      0.00000
     19      15.1475      0.00000
     20      16.3100      0.00000
     21      16.7672      0.00000
     22      16.9948      0.00000
     23      17.5805      0.00000
     24      17.9764      0.00000
     25      17.9949      0.00000
     26      20.0387      0.00000
     27      20.1384      0.00000
     28      21.1836      0.00000
     29      21.6223      0.00000
     30      22.1526      0.00000
     31      23.2387      0.00000
     32      24.3583      0.00000
     33      24.8223      0.00000
     34      25.3173      0.00000
     35      26.9669      0.00000
     36      27.3150      0.00000
     37      27.6971      0.00000
     38      29.7803      0.00000
     39      31.3557      0.00000
     40      31.6909      0.00000
     41      34.0361      0.00000
     42      34.2763      0.00000
     43      34.7125      0.00000
     44      35.9772      0.00000
     45      36.0162      0.00000
     46      39.4110      0.00000
     47      40.1538      0.00000
     48      41.5358      0.00000
     49      48.6631      0.00000
     50      49.2202      0.00000
     51      50.1727      0.00000
     52      51.3037      0.00000
     53      51.4167      0.00000
     54      51.6799      0.00000
     55      52.1318      0.00000
     56      53.1287      0.00000
     57      53.2187      0.00000
     58      53.4196      0.00000
     59      55.3068      0.00000
     60      57.7661      0.00000
     61      58.2786      0.00000
     62      58.4586      0.00000
     63      58.4835      0.00000
     64      58.5971      0.00000
     65      59.9712      0.00000
     66      60.1167      0.00000
     67      62.2768      0.00000
     68      62.5430      0.00000
     69      64.1266      0.00000
     70      64.9324      0.00000
     71      67.2581      0.00000
     72      67.3167      0.00000
     73      68.7830      0.00000
     74      69.7425      0.00000
     75      71.6051      0.00000
     76      72.7047      0.00000
     77      74.7173      0.00000
     78      75.5022      0.00000
     79      75.5457      0.00000
     80      75.6411      0.00000
     81      76.3245      0.00000
     82      76.8484      0.00000
     83      76.9723      0.00000
     84      78.5259      0.00000
     85      78.8136      0.00000
     86      80.8652      0.00000
     87      82.4107      0.00000
     88      85.4245      0.00000
     89      86.8369      0.00000
     90      87.0215      0.00000
     91      90.4130      0.00000
     92      90.6672      0.00000
     93      90.9681      0.00000
     94      93.9502      0.00000
     95      94.2676      0.00000
     96      97.2969      0.00000

 k-point   107 :       0.3333    0.3030    0.0000
  band No.  band energies     occupation 
      1     -17.2838      2.00000
      2     -16.5132      2.00000
      3     -14.2819      2.00000
      4      -2.9250      2.00000
      5      -1.7403      0.00000
      6       8.8460      0.00000
      7      10.7101      0.00000
      8      11.3994      0.00000
      9      11.7518      0.00000
     10      12.1434      0.00000
     11      12.3731      0.00000
     12      13.1429      0.00000
     13      13.2497      0.00000
     14      13.9692      0.00000
     15      14.0469      0.00000
     16      14.3450      0.00000
     17      14.6656      0.00000
     18      14.7549      0.00000
     19      15.1226      0.00000
     20      15.6265      0.00000
     21      16.6364      0.00000
     22      16.7153      0.00000
     23      17.2777      0.00000
     24      17.9938      0.00000
     25      18.4948      0.00000
     26      19.5332      0.00000
     27      20.1731      0.00000
     28      21.0102      0.00000
     29      21.0235      0.00000
     30      21.9501      0.00000
     31      23.7912      0.00000
     32      24.5098      0.00000
     33      24.7916      0.00000
     34      25.5519      0.00000
     35      26.5049      0.00000
     36      26.7524      0.00000
     37      27.4840      0.00000
     38      30.2991      0.00000
     39      31.0355      0.00000
     40      32.5215      0.00000
     41      33.4799      0.00000
     42      33.7894      0.00000
     43      34.4863      0.00000
     44      35.9721      0.00000
     45      36.6721      0.00000
     46      39.8694      0.00000
     47      40.9110      0.00000
     48      41.5401      0.00000
     49      49.1295      0.00000
     50      50.0559      0.00000
     51      50.1428      0.00000
     52      50.6762      0.00000
     53      51.5590      0.00000
     54      52.0182      0.00000
     55      52.6471      0.00000
     56      53.7526      0.00000
     57      53.8062      0.00000
     58      54.0627      0.00000
     59      55.9948      0.00000
     60      56.3536      0.00000
     61      57.1464      0.00000
     62      57.9081      0.00000
     63      57.9624      0.00000
     64      59.6122      0.00000
     65      60.9569      0.00000
     66      61.1937      0.00000
     67      61.8005      0.00000
     68      62.6095      0.00000
     69      63.7847      0.00000
     70      63.8888      0.00000
     71      63.9601      0.00000
     72      67.5757      0.00000
     73      67.6848      0.00000
     74      68.8256      0.00000
     75      69.6013      0.00000
     76      69.9780      0.00000
     77      70.2520      0.00000
     78      71.3142      0.00000
     79      72.5430      0.00000
     80      76.0292      0.00000
     81      76.7846      0.00000
     82      78.6055      0.00000
     83      79.3605      0.00000
     84      79.5042      0.00000
     85      81.7021      0.00000
     86      82.1915      0.00000
     87      83.2161      0.00000
     88      83.4406      0.00000
     89      84.5494      0.00000
     90      85.3685      0.00000
     91      86.1312      0.00000
     92      87.0137      0.00000
     93      90.9170      0.00000
     94      92.0142      0.00000
     95      94.6499      0.00000
     96      94.8755      0.00000

 k-point   108 :       0.3333    0.3333    0.0000
  band No.  band energies     occupation 
      1     -16.8492      2.00000
      2     -16.8492      2.00000
      3     -14.4277      2.00000
      4      -2.3273      1.00016
      5      -2.3273      0.99984
      6       8.7969      0.00000
      7      11.2834      0.00000
      8      11.2834      0.00000
      9      11.6307      0.00000
     10      12.8669      0.00000
     11      12.8669      0.00000
     12      13.1875      0.00000
     13      13.1875      0.00000
     14      13.2900      0.00000
     15      13.6300      0.00000
     16      14.5072      0.00000
     17      14.5072      0.00000
     18      15.1800      0.00000
     19      15.2447      0.00000
     20      15.2447      0.00000
     21      16.3321      0.00000
     22      16.7822      0.00000
     23      16.7822      0.00000
     24      17.8672      0.00000
     25      19.1048      0.00000
     26      19.1048      0.00000
     27      20.6793      0.00000
     28      20.6793      0.00000
     29      20.7269      0.00000
     30      21.5405      0.00000
     31      24.3623      0.00000
     32      24.3623      0.00000
     33      24.6043      0.00000
     34      26.2458      0.00000
     35      26.2458      0.00000
     36      26.5316      0.00000
     37      26.9018      0.00000
     38      30.7537      0.00000
     39      30.7537      0.00000
     40      33.2663      0.00000
     41      33.2664      0.00000
     42      33.6276      0.00000
     43      33.8632      0.00000
     44      36.5375      0.00000
     45      36.5375      0.00000
     46      39.6407      0.00000
     47      41.3241      0.00000
     48      41.4116      0.00000
     49      50.0554      0.00000
     50      50.1319      0.00000
     51      50.9546      0.00000
     52      51.0238      0.00000
     53      51.2866      0.00000
     54      51.5176      0.00000
     55      53.0213      0.00000
     56      53.4342      0.00000
     57      53.4846      0.00000
     58      54.7131      0.00000
     59      55.7155      0.00000
     60      56.0036      0.00000
     61      56.6032      0.00000
     62      56.8217      0.00000
     63      57.9816      0.00000
     64      59.6405      0.00000
     65      59.9748      0.00000
     66      60.7983      0.00000
     67      60.8658      0.00000
     68      62.1987      0.00000
     69      63.9529      0.00000
     70      65.5778      0.00000
     71      65.9966      0.00000
     72      66.5509      0.00000
     73      68.4184      0.00000
     74      68.7936      0.00000
     75      69.0261      0.00000
     76      70.6385      0.00000
     77      73.3025      0.00000
     78      74.1483      0.00000
     79      74.6837      0.00000
     80      74.9211      0.00000
     81      75.5753      0.00000
     82      76.0565      0.00000
     83      78.4964      0.00000
     84      78.5797      0.00000
     85      78.6468      0.00000
     86      78.7921      0.00000
     87      83.5445      0.00000
     88      85.5895      0.00000
     89      85.9334      0.00000
     90      86.7403      0.00000
     91      86.7842      0.00000
     92      90.3921      0.00000
     93      91.0164      0.00000
     94      93.6331      0.00000
     95      94.6389      0.00000
     96      98.0138      0.00000


--------------------------------------------------------------------------------------------------------


 soft charge-density along one line, spin component           1
         0         1         2         3         4         5         6         7         8         9
 total charge-density along one line
 
 pseudopotential strength for first ion, spin component:           1
  9.924  13.194  -0.000  -0.000   0.000   0.000   0.000  -0.000
 13.194  17.541  -0.000  -0.000   0.000   0.000   0.000  -0.000
 -0.000  -0.000  -4.152   0.000   0.000   8.096  -0.000  -0.000
 -0.000  -0.000   0.000  -4.152   0.000  -0.000   8.098  -0.000
  0.000   0.000   0.000   0.000  -4.152  -0.000  -0.000   8.096
  0.000   0.000   8.096  -0.000  -0.000 -17.897   0.000   0.000
  0.000   0.000  -0.000   8.098  -0.000   0.000 -17.907   0.000
 -0.000  -0.000  -0.000  -0.000   8.096   0.000   0.000 -17.897
 total augmentation occupancy for first ion, spin component:           1
  9.099  -4.183   0.000  -0.000  -0.000   0.000  -0.000  -0.000
 -4.183   1.970  -0.000   0.000   0.000  -0.000   0.000   0.000
  0.000  -0.000   1.838  -0.000   0.000   0.178  -0.000  -0.000
 -0.000   0.000  -0.000   1.198   0.000  -0.000   0.081   0.000
 -0.000   0.000   0.000   0.000   1.838   0.000  -0.000   0.178
  0.000  -0.000   0.178  -0.000   0.000   0.018  -0.000   0.000
 -0.000   0.000  -0.000   0.081  -0.000  -0.000   0.006  -0.000
 -0.000   0.000  -0.000   0.000   0.178   0.000  -0.000   0.018


------------------------ aborting loop because EDIFF is reached ----------------------------------------





 total charge

# of ion       s       p       d       tot
------------------------------------------
    1        0.870   1.778   0.000   2.648
    2        0.870   1.778   0.000   2.648
--------------------------------------------------
tot          1.739   3.556   0.000   5.295
 
    FORLOC:  cpu time      0.0002: real time      0.0002
    FORHF :  cpu time    244.9542: real time    245.6735
    FORNL :  cpu time      0.0192: real time      0.0193
    FORCOR:  cpu time      0.0368: real time      0.0368
    OFIELD:  cpu time      0.0000: real time      0.0000

 VOLUME and BASIS-vectors are now :
 -----------------------------------------------------------------------------
  energy-cutoff  :      450.00
  volume of cell :       79.06
      direct lattice vectors                 reciprocal lattice vectors
     2.136484500  1.233500000  0.000000000     0.234029313  0.405350628  0.000000000
    -2.136484500  1.233500000  0.000000000    -0.234029313  0.405350628  0.000000000
     0.000000000  0.000000000 15.000000000     0.000000000  0.000000000  0.066666667

  length of vectors
     2.466999852  2.466999852 15.000000000     0.468058598  0.468058598  0.066666667


 FORCES acting on ions:
    Electron-Ion                     Ewald-Force                    Non-Local-Force
 -----------------------------------------------------------------------------------------------
   -.117E-03 0.226E-03 0.388E-05   -.271E-03 0.289E-14 0.939E-15   -.153E-16 -.175E-16 0.496E-21
   0.117E-03 0.230E-03 0.387E-05   0.271E-03 0.665E-15 -.162E-21   0.260E-16 0.215E-16 0.715E-21
 -----------------------------------------------------------------------------------------------
   0.417E-06 0.455E-03 0.989E-05   -.890E-15 0.355E-14 0.939E-15   0.107E-16 0.400E-17 0.121E-20
 
 
 POSITION                                       TOTAL-FORCE (eV/Angst)
 -----------------------------------------------------------------------------------
     -0.71216      1.23350      1.50000         0.000000     -0.000000      0.000000
      0.71216      1.23350      1.50000        -0.000000      0.000000     -0.000000
 -----------------------------------------------------------------------------------
    total drift:                                0.000000      0.000455      0.000010


--------------------------------------------------------------------------------------------------------



  FREE ENERGIE OF THE ION-ELECTRON SYSTEM (eV)
  ---------------------------------------------------
  free  energy   TOTEN  =       -21.20549316 eV

  energy  without entropy=      -21.20528593  energy(sigma->0) =      -21.20538955
 


--------------------------------------------------------------------------------------------------------


    POTLOK:  cpu time      0.0355: real time      0.0360


--------------------------------------------------------------------------------------------------------


 stress matrix after NEB project (eV)
      0.00000      0.00000      0.00000
      0.00000      0.00000      0.00000
      0.00000      0.00000      0.00000
  FORCES: max atom, RMS     0.000000    0.000000
  FORCE total and by dimension    0.000000    0.000000
  Stress total and by dimension    0.000000    0.000000
 writing wavefunctions
     LOOP+:  cpu time  11485.0020: real time  11529.6063
    4ORBIT:  cpu time      0.0000: real time      0.0000



 total charge

# of ion       s       p       d       tot
------------------------------------------
    1        0.870   1.778   0.000   2.648
    2        0.870   1.778   0.000   2.648
--------------------------------------------------
tot          1.739   3.556   0.000   5.295
 

 total amount of memory used by VASP MPI-rank0    91007. kBytes
=======================================================================

   base      :      30000. kBytes
   nonl-proj :      12665. kBytes
   fftplans  :        393. kBytes
   grid      :       1780. kBytes
   one-center:          6. kBytes
   HF        :          4. kBytes
   nonlr-proj:        164. kBytes
   wavefun   :       9951. kBytes
   fock_wrk  :      36044. kBytes
 
  
  
 General timing and accounting informations for this job:
 ========================================================
  
                  Total CPU time used (sec):    11496.378
                            User time (sec):    11487.684
                          System time (sec):        8.693
                         Elapsed time (sec):    11543.477
  
                   Maximum memory used (kb):      610612.
                   Average memory used (kb):          N/A
  
                          Minor page faults:      3834182
                          Major page faults:         2365
                 Voluntary context switches:         8169
