       N       E                     dE             d eps       ncg     rms          rms(c)
DAV:   1     0.252216953158E+03    0.25222E+03   -0.28551E+04 13920   0.959E+02
DAV:   2    -0.136121154359E+03   -0.38834E+03   -0.38796E+03 21312   0.180E+02
DAV:   3    -0.151755245153E+03   -0.15634E+02   -0.15623E+02 24288   0.498E+01
DAV:   4    -0.151812728008E+03   -0.57483E-01   -0.57465E-01 21408   0.275E+00
DAV:   5    -0.151812806947E+03   -0.78938E-04   -0.78938E-04 22800   0.113E-01    0.184E+01
DAV:   6    -0.143361384920E+03    0.84514E+01   -0.10482E+01 26544   0.105E+01    0.106E+01
DAV:   7    -0.140478297528E+03    0.28831E+01   -0.83406E+00 27696   0.927E+00    0.297E+00
DAV:   8    -0.140422395647E+03    0.55902E-01   -0.19675E-01 25680   0.144E+00    0.848E-01
DAV:   9    -0.140402225874E+03    0.20170E-01   -0.21649E-02 19440   0.547E-01    0.195E-01
DAV:  10    -0.140393170581E+03    0.90553E-02   -0.52462E-03 25008   0.221E-01    0.132E-01
DAV:  11    -0.140383747892E+03    0.94227E-02   -0.16627E-02 21072   0.292E-01    0.997E-02
DAV:  12    -0.140384539849E+03   -0.79196E-03   -0.51486E-04 16464   0.757E-02    0.523E-02
DAV:  13    -0.140386416592E+03   -0.18767E-02   -0.75439E-04 20304   0.800E-02    0.213E-02
DAV:  14    -0.140388641939E+03   -0.22253E-02   -0.23452E-04 21120   0.380E-02    0.102E-02
DAV:  15    -0.140389655290E+03   -0.10134E-02   -0.12133E-04 16656   0.226E-02    0.743E-03
DAV:  16    -0.140390027899E+03   -0.37261E-03   -0.53373E-05 18480   0.130E-02    0.170E-03
DAV:  17    -0.140390069544E+03   -0.41645E-04   -0.28891E-06 19632   0.334E-03    0.920E-04
DAV:  18    -0.140390078579E+03   -0.90346E-05   -0.70815E-07 17136   0.172E-03    0.260E-04
DAV:  19    -0.140390079672E+03   -0.10932E-05   -0.47673E-08 18336   0.582E-04    0.117E-04
DAV:  20    -0.140390080021E+03   -0.34853E-06   -0.17252E-08 16416   0.277E-04
   1 F= -.14226325E+03 E0= -.14226322E+03  d E =-.142263E+03
       N       E                     dE             d eps       ncg     rms          rms(c)
DAV:   1    -0.140343417395E+03    0.46662E-01   -0.16066E+01 13920   0.138E+01    0.114E+00
DAV:   2    -0.140306238219E+03    0.37179E-01   -0.27611E-01 21936   0.189E+00    0.554E-01
DAV:   3    -0.140302649278E+03    0.35889E-02   -0.41477E-02 22608   0.644E-01    0.236E-01
DAV:   4    -0.140302602816E+03    0.46463E-04   -0.45198E-03 18816   0.207E-01    0.989E-02
DAV:   5    -0.140302612897E+03   -0.10081E-04   -0.35464E-04 17904   0.707E-02    0.177E-02
DAV:   6    -0.140302610539E+03    0.23576E-05   -0.57738E-05 23808   0.275E-02    0.988E-03
DAV:   7    -0.140302617431E+03   -0.68921E-05   -0.80239E-06 19056   0.102E-02    0.153E-03
DAV:   8    -0.140302623253E+03   -0.58212E-05   -0.13929E-06 19488   0.397E-03    0.100E-03
DAV:   9    -0.140302630576E+03   -0.73237E-05   -0.10408E-06 17904   0.226E-03    0.104E-03
DAV:  10    -0.140302634480E+03   -0.39040E-05   -0.37347E-07 18144   0.116E-03    0.299E-04
DAV:  11    -0.140302636399E+03   -0.19183E-05   -0.22753E-07 17616   0.723E-04    0.294E-04
DAV:  12    -0.140302636867E+03   -0.46795E-06   -0.38688E-08 17856   0.350E-04
   2 F= -.14218037E+03 E0= -.14218015E+03  d E =0.828738E-01
       N       E                     dE             d eps       ncg     rms          rms(c)
DAV:   1    -0.140423154371E+03   -0.12052E+00   -0.84814E+00 13920   0.995E+00    0.830E-01
DAV:   2    -0.140404285344E+03    0.18869E-01   -0.14418E-01 21840   0.139E+00    0.403E-01
DAV:   3    -0.140402164373E+03    0.21210E-02   -0.24748E-02 22560   0.486E-01    0.163E-01
DAV:   4    -0.140402096845E+03    0.67528E-04   -0.27534E-03 19824   0.163E-01    0.750E-02
DAV:   5    -0.140402098121E+03   -0.12766E-05   -0.20845E-04 15648   0.546E-02    0.127E-02
DAV:   6    -0.140402093953E+03    0.41690E-05   -0.41518E-05 24576   0.226E-02    0.676E-03
DAV:   7    -0.140402095960E+03   -0.20074E-05   -0.50391E-06 19248   0.853E-03    0.119E-03
DAV:   8    -0.140402098843E+03   -0.28832E-05   -0.79459E-07 16368   0.326E-03    0.106E-03
DAV:   9    -0.140402102865E+03   -0.40216E-05   -0.52774E-07 17040   0.204E-03    0.653E-04
DAV:  10    -0.140402104999E+03   -0.21343E-05   -0.11348E-07 16416   0.885E-04    0.260E-04
DAV:  11    -0.140402106695E+03   -0.16960E-05   -0.80607E-08 18096   0.506E-04    0.184E-04
DAV:  12    -0.140402107118E+03   -0.42332E-06   -0.98216E-09 18528   0.182E-04
   3 F= -.14227681E+03 E0= -.14227676E+03  d E =-.135620E-01
       N       E                     dE             d eps       ncg     rms          rms(c)
DAV:   1    -0.140402384550E+03   -0.27785E-03   -0.31681E-02 14496   0.754E-01    0.339E-02
DAV:   2    -0.140402391054E+03   -0.65042E-05   -0.20534E-04 25728   0.633E-02    0.218E-02
DAV:   3    -0.140402392765E+03   -0.17109E-05   -0.24301E-05 16560   0.191E-02    0.473E-03
DAV:   4    -0.140402392757E+03    0.74560E-08   -0.40153E-06 21168   0.744E-03
   4 F= -.14227708E+03 E0= -.14227703E+03  d E =-.270983E-03
       N       E                     dE             d eps       ncg     rms          rms(c)
DAV:   1    -0.140402414089E+03   -0.21324E-04   -0.36292E-03 13920   0.255E-01    0.117E-02
DAV:   2    -0.140402414792E+03   -0.70314E-06   -0.24493E-05 23856   0.219E-02    0.758E-03
DAV:   3    -0.140402415198E+03   -0.40548E-06   -0.29002E-06 15360   0.666E-03
   5 F= -.14227710E+03 E0= -.14227705E+03  d E =-.288601E-03
       N       E                     dE             d eps       ncg     rms          rms(c)
DAV:   1    -0.140402381148E+03    0.33645E-04   -0.18305E-02 15792   0.564E-01    0.322E-02
DAV:   2    -0.140402374789E+03    0.63590E-05   -0.29126E-04 15120   0.701E-02    0.189E-02
DAV:   3    -0.140402374731E+03    0.57713E-07   -0.39098E-05 16944   0.230E-02    0.924E-03
DAV:   4    -0.140402374782E+03   -0.51367E-07   -0.10227E-05 19152   0.973E-03    0.487E-03
DAV:   5    -0.140402374850E+03   -0.67757E-07   -0.16103E-06 16032   0.495E-03
   6 F= -.14227707E+03 E0= -.14227702E+03  d E =0.327539E-04
       N       E                     dE             d eps       ncg     rms          rms(c)
DAV:   1    -0.140402442960E+03   -0.68177E-04   -0.63863E-03 15360   0.333E-01    0.189E-02
DAV:   2    -0.140402440813E+03    0.21468E-05   -0.10361E-04 15024   0.419E-02    0.111E-02
DAV:   3    -0.140402440934E+03   -0.12054E-06   -0.14107E-05 15984   0.137E-02    0.542E-03
DAV:   4    -0.140402441081E+03   -0.14745E-06   -0.37064E-06 16272   0.585E-03
   7 F= -.14227713E+03 E0= -.14227708E+03  d E =-.291382E-04
       N       E                     dE             d eps       ncg     rms          rms(c)
DAV:   1    -0.140402441305E+03   -0.37186E-06   -0.84043E-07 15360   0.424E-03    0.667E-04
DAV:   2    -0.140402441345E+03   -0.39897E-07   -0.35343E-08 23760   0.742E-04
   8 F= -.14227713E+03 E0= -.14227708E+03  d E =-.293407E-04
       N       E                     dE             d eps       ncg     rms          rms(c)
DAV:   1    -0.140402441403E+03   -0.97580E-07   -0.23492E-07 14976   0.205E-03    0.105E-04
DAV:   2    -0.140402441433E+03   -0.30343E-07   -0.25506E-09 21120   0.209E-04
   9 F= -.14227713E+03 E0= -.14227708E+03  d E =-.294588E-04
       N       E                     dE             d eps       ncg     rms          rms(c)
DAV:   1    -0.140402448321E+03   -0.69180E-05   -0.70478E-04 15600   0.114E-01    0.615E-03
DAV:   2    -0.140402448170E+03    0.15064E-06   -0.63197E-06 14112   0.102E-02
  10 F= -.14227713E+03 E0= -.14227708E+03  d E =-.452156E-05
       N       E                     dE             d eps       ncg     rms          rms(c)
DAV:   1    -0.140402448465E+03   -0.14426E-06   -0.62913E-06 16128   0.103E-02    0.716E-04
DAV:   2    -0.140402448470E+03   -0.48813E-08   -0.23044E-07 18672   0.170E-03
  11 F= -.14227713E+03 E0= -.14227708E+03  d E =-.497883E-05
       N       E                     dE             d eps       ncg     rms          rms(c)
DAV:   1    -0.140402453166E+03   -0.47005E-05   -0.19040E-04 14640   0.600E-02    0.310E-03
DAV:   2    -0.140402453048E+03    0.11766E-06   -0.16369E-06 14304   0.551E-03
  12 F= -.14227714E+03 E0= -.14227709E+03  d E =-.257649E-05
       N       E                     dE             d eps       ncg     rms          rms(c)
DAV:   1    -0.140402454464E+03   -0.12984E-05   -0.41164E-05 14016   0.282E-02    0.165E-03
DAV:   2    -0.140402454395E+03    0.68843E-07   -0.30422E-07 16800   0.240E-03
  13 F= -.14227714E+03 E0= -.14227709E+03  d E =-.297282E-05
