       N       E                     dE             d eps       ncg     rms          rms(c)
DAV:   1     0.259726297216E+03    0.25973E+03   -0.28687E+04 14208   0.964E+02
DAV:   2    -0.130315429701E+03   -0.39004E+03   -0.38955E+03 21696   0.181E+02
DAV:   3    -0.146039649421E+03   -0.15724E+02   -0.15700E+02 26064   0.500E+01
DAV:   4    -0.146080664556E+03   -0.41015E-01   -0.40988E-01 21312   0.237E+00
DAV:   5    -0.146080743262E+03   -0.78706E-04   -0.78705E-04 24528   0.109E-01    0.252E+01
DAV:   6    -0.107432652312E+03    0.38648E+02   -0.67131E+01 23808   0.265E+01    0.146E+01
DAV:   7    -0.114671108093E+03   -0.72385E+01   -0.10314E+01 23088   0.111E+01    0.859E+00
DAV:   8    -0.123655646211E+03   -0.89845E+01   -0.83382E+00 25632   0.905E+00    0.461E+00
DAV:   9    -0.131440733194E+03   -0.77851E+01   -0.42336E+00 17952   0.712E+00    0.305E+00
DAV:  10    -0.138619584381E+03   -0.71789E+01   -0.10035E+01 20592   0.784E+00    0.176E+00
DAV:  11    -0.140012975316E+03   -0.13934E+01   -0.15253E+00 20544   0.323E+00    0.119E+00
DAV:  12    -0.140257908151E+03   -0.24493E+00   -0.33056E-01 21168   0.157E+00    0.488E-01
DAV:  13    -0.140318591366E+03   -0.60683E-01   -0.48613E-02 17136   0.807E-01    0.210E-01
DAV:  14    -0.140344442050E+03   -0.25851E-01   -0.86893E-03 18576   0.337E-01    0.101E-01
DAV:  15    -0.140354160435E+03   -0.97184E-02   -0.51839E-03 17136   0.189E-01    0.508E-02
DAV:  16    -0.140355951228E+03   -0.17908E-02   -0.78286E-04 15744   0.101E-01    0.282E-02
DAV:  17    -0.140357766629E+03   -0.18154E-02   -0.25687E-04 14784   0.647E-02    0.181E-02
DAV:  18    -0.140358900782E+03   -0.11342E-02   -0.13105E-04 15360   0.468E-02    0.133E-02
DAV:  19    -0.140359455690E+03   -0.55491E-03   -0.70935E-05 18960   0.383E-02    0.812E-03
DAV:  20    -0.140359646271E+03   -0.19058E-03   -0.26820E-05 17136   0.251E-02    0.474E-03
DAV:  21    -0.140359687678E+03   -0.41408E-04   -0.98335E-06 19872   0.151E-02    0.288E-03
DAV:  22    -0.140359709773E+03   -0.22095E-04   -0.44086E-06 22464   0.863E-03    0.205E-03
DAV:  23    -0.140359720490E+03   -0.10716E-04   -0.18488E-06 21264   0.470E-03    0.948E-04
DAV:  24    -0.140359724175E+03   -0.36848E-05   -0.44109E-07 20592   0.237E-03    0.536E-04
DAV:  25    -0.140359726167E+03   -0.19924E-05   -0.12352E-07 20976   0.121E-03    0.281E-04
DAV:  26    -0.140359727299E+03   -0.11318E-05   -0.82262E-08 19968   0.915E-04    0.143E-04
DAV:  27    -0.140359727712E+03   -0.41345E-06   -0.29479E-08 20112   0.534E-04    0.599E-05
DAV:  28    -0.140359727943E+03   -0.23121E-06   -0.65340E-09 17232   0.247E-04    0.393E-05
DAV:  29    -0.140359728069E+03   -0.12604E-06   -0.47277E-09 19200   0.160E-04    0.257E-05
DAV:  30    -0.140359728096E+03   -0.26974E-07   -0.14241E-09 20976   0.803E-05    0.143E-05
DAV:  31    -0.140359728109E+03   -0.13051E-07   -0.34039E-10 18960   0.415E-05    0.965E-06
DAV:  32    -0.140359728121E+03   -0.11374E-07   -0.15840E-10 19008   0.271E-05    0.478E-06
DAV:  33    -0.140359728125E+03   -0.40045E-08   -0.49046E-11 20352   0.173E-05
   1 F= -.14226008E+03 E0= -.14225877E+03  d E =-.142260E+03  mag=    -0.0000
       N       E                     dE             d eps       ncg     rms          rms(c)
DAV:   1    -0.140298709249E+03    0.61019E-01   -0.21188E+01 14208   0.152E+01    0.133E+00
DAV:   2    -0.140243101719E+03    0.55608E-01   -0.35673E-01 23616   0.203E+00    0.628E-01
DAV:   3    -0.140238471647E+03    0.46301E-02   -0.48965E-02 24288   0.682E-01    0.278E-01
DAV:   4    -0.140238308445E+03    0.16320E-03   -0.48741E-03 22608   0.215E-01    0.105E-01
DAV:   5    -0.140238298904E+03    0.95407E-05   -0.39068E-04 19248   0.734E-02    0.204E-02
DAV:   6    -0.140238300460E+03   -0.15554E-05   -0.71543E-05 24144   0.299E-02    0.101E-02
DAV:   7    -0.140238312627E+03   -0.12167E-04   -0.78189E-06 20352   0.974E-03    0.251E-03
DAV:   8    -0.140238324631E+03   -0.12005E-04   -0.14249E-06 22368   0.356E-03    0.188E-03
DAV:   9    -0.140238337993E+03   -0.13361E-04   -0.13625E-06 20160   0.265E-03    0.131E-03
DAV:  10    -0.140238346814E+03   -0.88216E-05   -0.73623E-07 18672   0.171E-03    0.931E-04
DAV:  11    -0.140238355203E+03   -0.83889E-05   -0.10768E-06 17376   0.160E-03    0.417E-04
DAV:  12    -0.140238356379E+03   -0.11761E-05   -0.69701E-08 21648   0.474E-04    0.256E-04
DAV:  13    -0.140238356923E+03   -0.54339E-06   -0.34544E-08 15840   0.313E-04    0.905E-05
DAV:  14    -0.140238357276E+03   -0.35317E-06   -0.25007E-08 16512   0.244E-04    0.454E-05
DAV:  15    -0.140238357441E+03   -0.16520E-06   -0.59054E-09 18720   0.128E-04    0.414E-05
DAV:  16    -0.140238357569E+03   -0.12816E-06   -0.24543E-09 18000   0.105E-04    0.325E-05
DAV:  17    -0.140238357670E+03   -0.10041E-06   -0.22737E-09 18144   0.100E-04    0.164E-05
DAV:  18    -0.140238357687E+03   -0.16987E-07   -0.34726E-10 22944   0.379E-05    0.111E-05
DAV:  19    -0.140238357692E+03   -0.57644E-08   -0.18634E-10 18384   0.264E-05
   2 F= -.14214455E+03 E0= -.14214307E+03  d E =0.115535E+00  mag=    -0.0000
       N       E                     dE             d eps       ncg     rms          rms(c)
DAV:   1    -0.140407510595E+03   -0.16915E+00   -0.11437E+01 14208   0.111E+01    0.980E-01
DAV:   2    -0.140377721887E+03    0.29789E-01   -0.18748E-01 23904   0.151E+00    0.462E-01
DAV:   3    -0.140374991911E+03    0.27300E-02   -0.30141E-02 24000   0.521E-01    0.196E-01
DAV:   4    -0.140374890250E+03    0.10166E-03   -0.31642E-03 17088   0.169E-01    0.836E-02
DAV:   5    -0.140374886706E+03    0.35443E-05   -0.25162E-04 18912   0.583E-02    0.138E-02
DAV:   6    -0.140374885065E+03    0.16408E-05   -0.46121E-05 18816   0.229E-02    0.740E-03
DAV:   7    -0.140374891420E+03   -0.63546E-05   -0.46389E-06 21072   0.720E-03    0.139E-03
DAV:   8    -0.140374899968E+03   -0.85477E-05   -0.69254E-07 22272   0.248E-03    0.783E-04
DAV:   9    -0.140374907088E+03   -0.71198E-05   -0.38312E-07 18624   0.130E-03    0.895E-04
DAV:  10    -0.140374912047E+03   -0.49595E-05   -0.21809E-07 16800   0.839E-04    0.564E-04
DAV:  11    -0.140374916053E+03   -0.40061E-05   -0.30575E-07 14784   0.925E-04    0.281E-04
DAV:  12    -0.140374916544E+03   -0.49061E-06   -0.91418E-09 23472   0.219E-04    0.145E-04
DAV:  13    -0.140374916967E+03   -0.42321E-06   -0.10804E-08 16704   0.191E-04    0.376E-05
DAV:  14    -0.140374917085E+03   -0.11833E-06   -0.18497E-09 22368   0.880E-05    0.283E-05
DAV:  15    -0.140374917173E+03   -0.87212E-07   -0.13032E-09 17088   0.693E-05    0.234E-05
DAV:  16    -0.140374917203E+03   -0.30035E-07   -0.41387E-10 21312   0.501E-05    0.162E-05
DAV:  17    -0.140374917216E+03   -0.13228E-07   -0.24734E-10 18432   0.352E-05    0.898E-06
DAV:  18    -0.140374917221E+03   -0.52150E-08   -0.18763E-10 20064   0.263E-05
   3 F= -.14227724E+03 E0= -.14227583E+03  d E =-.171559E-01  mag=     0.0000
       N       E                     dE             d eps       ncg     rms          rms(c)
DAV:   1    -0.140374918621E+03   -0.14055E-05   -0.87569E-07 20640   0.309E-03    0.279E-04
DAV:   2    -0.140374918620E+03    0.12624E-08   -0.15674E-08 24096   0.407E-04
   4 F= -.14227724E+03 E0= -.14227583E+03  d E =-.171560E-01  mag=     0.0000
       N       E                     dE             d eps       ncg     rms          rms(c)
DAV:   1    -0.140374992520E+03   -0.73899E-04   -0.11944E-02 14208   0.461E-01    0.213E-02
DAV:   2    -0.140374992799E+03   -0.27889E-06   -0.54269E-05 17088   0.332E-02    0.129E-02
DAV:   3    -0.140374995809E+03   -0.30103E-05   -0.76289E-06 14400   0.105E-02    0.203E-03
DAV:   4    -0.140374995819E+03   -0.90904E-08   -0.82771E-07 26016   0.351E-03    0.104E-03
DAV:   5    -0.140374995862E+03   -0.43112E-07   -0.48836E-08 17856   0.875E-04    0.381E-04
DAV:   6    -0.140374995857E+03    0.46157E-08   -0.11019E-08 20160   0.405E-04
   5 F= -.14227735E+03 E0= -.14227594E+03  d E =-.112303E-03  mag=    -0.0000
       N       E                     dE             d eps       ncg     rms          rms(c)
DAV:   1    -0.140374991301E+03    0.45604E-05   -0.10736E-03 14208   0.138E-01    0.639E-03
DAV:   2    -0.140374991185E+03    0.11635E-06   -0.50806E-06 15264   0.102E-02    0.386E-03
DAV:   3    -0.140374991613E+03   -0.42801E-06   -0.69746E-07 14208   0.319E-03    0.614E-04
DAV:   4    -0.140374991621E+03   -0.77152E-08   -0.79078E-08 27696   0.108E-03
   6 F= -.14227736E+03 E0= -.14227595E+03  d E =-.118594E-03  mag=    -0.0000
       N       E                     dE             d eps       ncg     rms          rms(c)
DAV:   1    -0.140374953752E+03    0.37860E-04   -0.52945E-03 14208   0.317E-01    0.163E-02
DAV:   2    -0.140374952561E+03    0.11910E-05   -0.45473E-05 14208   0.306E-02    0.993E-03
DAV:   3    -0.140374953484E+03   -0.92247E-06   -0.84687E-06 16128   0.112E-02    0.271E-03
DAV:   4    -0.140374953492E+03   -0.82609E-08   -0.15870E-06 23616   0.468E-03    0.149E-03
DAV:   5    -0.140374953630E+03   -0.13800E-06   -0.49301E-08 15936   0.105E-03    0.567E-04
DAV:   6    -0.140374953641E+03   -0.11287E-07   -0.13050E-08 23856   0.412E-04    0.170E-04
DAV:   7    -0.140374953650E+03   -0.83583E-08   -0.13617E-09 17136   0.151E-04
   7 F= -.14227738E+03 E0= -.14227597E+03  d E =-.184510E-04  mag=    -0.0000
       N       E                     dE             d eps       ncg     rms          rms(c)
DAV:   1    -0.140374968088E+03   -0.14446E-04   -0.26894E-04 14208   0.715E-02    0.366E-03
DAV:   2    -0.140374967933E+03    0.15507E-06   -0.23865E-06 16128   0.696E-03    0.225E-03
DAV:   3    -0.140374968129E+03   -0.19625E-06   -0.42672E-07 18864   0.250E-03    0.619E-04
DAV:   4    -0.140374968147E+03   -0.17535E-07   -0.79507E-08 22560   0.105E-03    0.341E-04
DAV:   5    -0.140374968172E+03   -0.25005E-07   -0.26857E-09 18240   0.246E-04    0.127E-04
DAV:   6    -0.140374968183E+03   -0.11160E-07   -0.70029E-10 20016   0.978E-05    0.425E-05
DAV:   7    -0.140374968187E+03   -0.41973E-08   -0.76960E-11 21744   0.395E-05
   8 F= -.14227738E+03 E0= -.14227597E+03  d E =-.202693E-04  mag=     0.0000
       N       E                     dE             d eps       ncg     rms          rms(c)
DAV:   1    -0.140374889702E+03    0.78481E-04   -0.47385E-03 14208   0.299E-01    0.160E-02
DAV:   2    -0.140374888560E+03    0.11424E-05   -0.46215E-05 14208   0.293E-02    0.981E-03
DAV:   3    -0.140374889055E+03   -0.49539E-06   -0.77267E-06 15552   0.105E-02    0.223E-03
DAV:   4    -0.140374889085E+03   -0.29711E-07   -0.12024E-06 19392   0.406E-03    0.116E-03
DAV:   5    -0.140374889228E+03   -0.14338E-06   -0.43579E-08 16608   0.944E-04    0.442E-04
DAV:   6    -0.140374889235E+03   -0.63246E-08   -0.12067E-08 22368   0.378E-04
   9 F= -.14227737E+03 E0= -.14227597E+03  d E =0.743726E-05  mag=     0.0000
       N       E                     dE             d eps       ncg     rms          rms(c)
DAV:   1    -0.140374945918E+03   -0.56690E-04   -0.16614E-03 14208   0.177E-01    0.948E-03
DAV:   2    -0.140374945299E+03    0.61958E-06   -0.16185E-05 14208   0.174E-02    0.581E-03
DAV:   3    -0.140374945694E+03   -0.39499E-06   -0.27216E-06 16128   0.624E-03    0.132E-03
DAV:   4    -0.140374945716E+03   -0.22615E-07   -0.42424E-07 24384   0.240E-03    0.694E-04
DAV:   5    -0.140374945787E+03   -0.70479E-07   -0.12251E-08 16416   0.504E-04    0.269E-04
DAV:   6    -0.140374945794E+03   -0.70295E-08   -0.41380E-09 21552   0.225E-04
  10 F= -.14227739E+03 E0= -.14227598E+03  d E =-.679317E-05  mag=     0.0000
       N       E                     dE             d eps       ncg     rms          rms(c)
DAV:   1    -0.140374898683E+03    0.47104E-04   -0.89305E-04 14208   0.131E-01    0.675E-03
DAV:   2    -0.140374898300E+03    0.38257E-06   -0.11342E-05 17568   0.150E-02    0.408E-03
DAV:   3    -0.140374898436E+03   -0.13548E-06   -0.16328E-06 14496   0.507E-03    0.141E-03
DAV:   4    -0.140374898472E+03   -0.36055E-07   -0.38612E-07 16992   0.224E-03    0.768E-04
DAV:   5    -0.140374898530E+03   -0.58199E-07   -0.23924E-08 16416   0.699E-04    0.232E-04
DAV:   6    -0.140374898531E+03   -0.48476E-09   -0.45145E-09 20880   0.266E-04
  11 F= -.14227739E+03 E0= -.14227598E+03  d E =-.114828E-05  mag=     0.0000
       N       E                     dE             d eps       ncg     rms          rms(c)
DAV:   1    -0.140374920129E+03   -0.21599E-04   -0.15768E-04 14208   0.549E-02    0.285E-03
DAV:   2    -0.140374920014E+03    0.11442E-06   -0.19876E-06 14208   0.631E-03    0.172E-03
DAV:   3    -0.140374920083E+03   -0.68376E-07   -0.31823E-07 16128   0.223E-03    0.616E-04
DAV:   4    -0.140374920087E+03   -0.48922E-08   -0.69677E-08 16512   0.951E-04
  12 F= -.14227739E+03 E0= -.14227598E+03  d E =-.240487E-05  mag=     0.0000
       N       E                     dE             d eps       ncg     rms          rms(c)
DAV:   1    -0.140374874652E+03    0.45430E-04   -0.31592E-04 14208   0.731E-02    0.373E-03
DAV:   2    -0.140374874417E+03    0.23517E-06   -0.27362E-06 16416   0.719E-03    0.222E-03
DAV:   3    -0.140374874568E+03   -0.15047E-06   -0.41987E-07 14352   0.239E-03    0.499E-04
DAV:   4    -0.140374874592E+03   -0.24514E-07   -0.74678E-08 16416   0.977E-04    0.234E-04
DAV:   5    -0.140374874604E+03   -0.11453E-07   -0.25746E-09 20784   0.222E-04    0.735E-05
DAV:   6    -0.140374874603E+03    0.33378E-09   -0.38171E-10 16416   0.873E-05
  13 F= -.14227739E+03 E0= -.14227599E+03  d E =-.215799E-05  mag=     0.0000
       N       E                     dE             d eps       ncg     rms          rms(c)
DAV:   1    -0.140374837294E+03    0.37310E-04   -0.19895E-04 14208   0.580E-02    0.295E-03
DAV:   2    -0.140374837125E+03    0.16897E-06   -0.16939E-06 16128   0.567E-03    0.176E-03
DAV:   3    -0.140374837242E+03   -0.11701E-06   -0.26069E-07 14880   0.189E-03    0.394E-04
DAV:   4    -0.140374837258E+03   -0.16133E-07   -0.46570E-08 16272   0.772E-04    0.185E-04
DAV:   5    -0.140374837266E+03   -0.82300E-08   -0.16567E-09 21408   0.179E-04
  14 F= -.14227739E+03 E0= -.14227599E+03  d E =-.270220E-05  mag=    -0.0000
       N       E                     dE             d eps       ncg     rms          rms(c)
DAV:   1    -0.140374780276E+03    0.56982E-04   -0.26772E-04 14208   0.667E-02    0.350E-03
DAV:   2    -0.140374779971E+03    0.30484E-06   -0.30888E-06 16416   0.741E-03    0.208E-03
DAV:   3    -0.140374780093E+03   -0.12202E-06   -0.45815E-07 15360   0.251E-03    0.510E-04
DAV:   4    -0.140374780131E+03   -0.37615E-07   -0.87650E-08 15840   0.104E-03    0.248E-04
DAV:   5    -0.140374780156E+03   -0.25369E-07   -0.25894E-09 17808   0.241E-04    0.795E-05
DAV:   6    -0.140374780157E+03   -0.15680E-08   -0.42137E-10 20928   0.931E-05
  15 F= -.14227739E+03 E0= -.14227599E+03  d E =-.131592E-05  mag=     0.0000
       N       E                     dE             d eps       ncg     rms          rms(c)
DAV:   1    -0.140374665158E+03    0.11500E-03   -0.10647E-03 14208   0.133E-01    0.700E-03
DAV:   2    -0.140374664283E+03    0.87539E-06   -0.12252E-05 17520   0.147E-02    0.414E-03
DAV:   3    -0.140374664497E+03   -0.21367E-06   -0.17981E-06 17280   0.493E-03    0.101E-03
DAV:   4    -0.140374664589E+03   -0.92411E-07   -0.33524E-07 15552   0.204E-03    0.488E-04
DAV:   5    -0.140374664669E+03   -0.79762E-07   -0.10197E-08 17472   0.461E-04    0.132E-04
DAV:   6    -0.140374664672E+03   -0.28231E-08   -0.16648E-09 22896   0.141E-04
  16 F= -.14227739E+03 E0= -.14227599E+03  d E =-.236671E-05  mag=     0.0000
       N       E                     dE             d eps       ncg     rms          rms(c)
DAV:   1    -0.140374652466E+03    0.12203E-04   -0.11632E-05 15168   0.138E-02    0.723E-04
DAV:   2    -0.140374652440E+03    0.26400E-07   -0.13272E-07 15456   0.152E-03    0.426E-04
DAV:   3    -0.140374652457E+03   -0.17014E-07   -0.19245E-08 16032   0.508E-04    0.103E-04
DAV:   4    -0.140374652462E+03   -0.58271E-08   -0.36503E-09 18720   0.206E-04
  17 F= -.14227739E+03 E0= -.14227599E+03  d E =-.310664E-06  mag=    -0.0000
       N       E                     dE             d eps       ncg     rms          rms(c)
DAV:   1    -0.140374615852E+03    0.36605E-04   -0.10434E-04 14208   0.413E-02    0.218E-03
DAV:   2    -0.140374615698E+03    0.15366E-06   -0.11938E-06 15264   0.458E-03    0.129E-03
DAV:   3    -0.140374615772E+03   -0.74004E-07   -0.17543E-07 15120   0.152E-03    0.312E-04
DAV:   4    -0.140374615796E+03   -0.24153E-07   -0.32929E-08 16176   0.626E-04    0.140E-04
DAV:   5    -0.140374615809E+03   -0.13046E-07   -0.92328E-10 19584   0.137E-04    0.364E-05
DAV:   6    -0.140374615810E+03   -0.83310E-09   -0.94232E-11 21120   0.337E-05
  18 F= -.14227739E+03 E0= -.14227599E+03  d E =-.122486E-05  mag=     0.0000
       N       E                     dE             d eps       ncg     rms          rms(c)
DAV:   1    -0.140374542581E+03    0.73229E-04   -0.41768E-04 14208   0.826E-02    0.438E-03
DAV:   2    -0.140374542113E+03    0.46761E-06   -0.46593E-06 15456   0.901E-03    0.258E-03
DAV:   3    -0.140374542280E+03   -0.16703E-06   -0.70923E-07 16320   0.305E-03    0.610E-04
DAV:   4    -0.140374542336E+03   -0.55998E-07   -0.12720E-07 15936   0.124E-03    0.271E-04
DAV:   5    -0.140374542375E+03   -0.38854E-07   -0.35862E-09 17664   0.273E-04    0.590E-05
DAV:   6    -0.140374542376E+03   -0.74306E-09   -0.82574E-10 20064   0.935E-05
  19 F= -.14227740E+03 E0= -.14227599E+03  d E =-.292877E-05  mag=     0.0000
       N       E                     dE             d eps       ncg     rms          rms(c)
DAV:   1    -0.140374395887E+03    0.14649E-03   -0.16703E-03 14208   0.165E-01    0.877E-03
DAV:   2    -0.140374394564E+03    0.13230E-05   -0.18605E-05 16992   0.180E-02    0.514E-03
DAV:   3    -0.140374394791E+03   -0.22656E-06   -0.27824E-06 17568   0.601E-03    0.121E-03
DAV:   4    -0.140374394928E+03   -0.13758E-06   -0.49488E-07 15552   0.244E-03    0.537E-04
DAV:   5    -0.140374395038E+03   -0.11016E-06   -0.14484E-08 17280   0.546E-04    0.118E-04
DAV:   6    -0.140374395040E+03   -0.16034E-08   -0.25760E-09 21024   0.168E-04
  20 F= -.14227740E+03 E0= -.14227600E+03  d E =-.589189E-05  mag=     0.0000
       N       E                     dE             d eps       ncg     rms          rms(c)
DAV:   1    -0.140374101900E+03    0.29314E-03   -0.66821E-03 14208   0.330E-01    0.175E-02
DAV:   2    -0.140374097925E+03    0.39750E-05   -0.74210E-05 14976   0.360E-02    0.103E-02
DAV:   3    -0.140374097961E+03   -0.35458E-07   -0.11493E-05 16992   0.123E-02    0.241E-03
DAV:   4    -0.140374098216E+03   -0.25493E-06   -0.20487E-06 16320   0.494E-03    0.108E-03
DAV:   5    -0.140374098479E+03   -0.26303E-06   -0.56181E-08 14208   0.108E-03    0.240E-04
DAV:   6    -0.140374098487E+03   -0.85602E-08   -0.12639E-08 22080   0.371E-04
  21 F= -.14227740E+03 E0= -.14227600E+03  d E =-.993305E-05  mag=     0.0000
       N       E                     dE             d eps       ncg     rms          rms(c)
DAV:   1    -0.140373511549E+03    0.58693E-03   -0.26727E-02 14208   0.661E-01    0.351E-02
DAV:   2    -0.140373495699E+03    0.15850E-04   -0.29727E-04 14208   0.719E-02    0.206E-02
DAV:   3    -0.140373497061E+03   -0.13619E-05   -0.45196E-05 15456   0.246E-02    0.487E-03
DAV:   4    -0.140373497525E+03   -0.46389E-06   -0.85208E-06 16896   0.100E-02    0.213E-03
DAV:   5    -0.140373498040E+03   -0.51553E-06   -0.21694E-07 16512   0.209E-03    0.482E-04
DAV:   6    -0.140373498046E+03   -0.57407E-08   -0.52654E-08 22080   0.746E-04
  22 F= -.14227740E+03 E0= -.14227600E+03  d E =-.110816E-04  mag=    -0.0000
       N       E                     dE             d eps       ncg     rms          rms(c)
DAV:   1    -0.140373714218E+03   -0.21618E-03   -0.33766E-03 14208   0.235E-01    0.124E-02
DAV:   2    -0.140373711853E+03    0.23644E-05   -0.38114E-05 16416   0.257E-02    0.733E-03
DAV:   3    -0.140373712525E+03   -0.67165E-06   -0.56673E-06 17136   0.857E-03    0.175E-03
DAV:   4    -0.140373712674E+03   -0.14880E-06   -0.97829E-07 15456   0.346E-03    0.780E-04
DAV:   5    -0.140373712844E+03   -0.17044E-06   -0.28333E-08 16080   0.762E-04    0.183E-04
DAV:   6    -0.140373712868E+03   -0.24195E-07   -0.31088E-09 15648   0.191E-04    0.102E-04
DAV:   7    -0.140373712898E+03   -0.29473E-07   -0.97432E-10 18672   0.105E-04    0.309E-05
DAV:   8    -0.140373712921E+03   -0.22917E-07   -0.26954E-10 17568   0.510E-05    0.129E-05
DAV:   9    -0.140373712928E+03   -0.77107E-08   -0.55452E-11 23040   0.197E-05
  23 F= -.14227741E+03 E0= -.14227600E+03  d E =-.120275E-04  mag=    -0.0000
       N       E                     dE             d eps       ncg     rms          rms(c)
DAV:   1    -0.140373630142E+03    0.82779E-04   -0.52259E-04 14592   0.924E-02    0.490E-03
DAV:   2    -0.140373629609E+03    0.53242E-06   -0.60304E-06 15264   0.102E-02    0.291E-03
DAV:   3    -0.140373629793E+03   -0.18355E-06   -0.89399E-07 14208   0.344E-03    0.710E-04
DAV:   4    -0.140373629855E+03   -0.62575E-07   -0.17229E-07 15264   0.143E-03    0.323E-04
DAV:   5    -0.140373629899E+03   -0.43119E-07   -0.47329E-09 17856   0.309E-04    0.744E-05
DAV:   6    -0.140373629899E+03    0.27285E-11   -0.11328E-09 21792   0.110E-04
  24 F= -.14227741E+03 E0= -.14227601E+03  d E =-.187982E-05  mag=    -0.0000
       N       E                     dE             d eps       ncg     rms          rms(c)
DAV:   1    -0.140373381596E+03    0.24830E-03   -0.47050E-03 14208   0.277E-01    0.148E-02
DAV:   2    -0.140373378710E+03    0.28856E-05   -0.53463E-05 18144   0.304E-02    0.865E-03
DAV:   3    -0.140373378756E+03   -0.46050E-07   -0.77902E-06 17568   0.101E-02    0.205E-03
DAV:   4    -0.140373378981E+03   -0.22426E-06   -0.14017E-06 15264   0.414E-03    0.939E-04
DAV:   5    -0.140373379192E+03   -0.21173E-06   -0.42860E-08 16512   0.935E-04    0.205E-04
DAV:   6    -0.140373379196E+03   -0.34343E-08   -0.91442E-09 22464   0.314E-04
  25 F= -.14227741E+03 E0= -.14227601E+03  d E =-.619383E-05  mag=    -0.0000
       N       E                     dE             d eps       ncg     rms          rms(c)
DAV:   1    -0.140372880234E+03    0.49896E-03   -0.18821E-02 14208   0.554E-01    0.296E-02
DAV:   2    -0.140372868198E+03    0.12035E-04   -0.21306E-04 14208   0.609E-02    0.173E-02
DAV:   3    -0.140372869842E+03   -0.16441E-05   -0.32252E-05 16128   0.208E-02    0.415E-03
DAV:   4    -0.140372870234E+03   -0.39185E-06   -0.60055E-06 17088   0.843E-03    0.189E-03
DAV:   5    -0.140372870665E+03   -0.43116E-06   -0.15788E-07 16512   0.178E-03    0.442E-04
DAV:   6    -0.140372870670E+03   -0.46366E-08   -0.34469E-08 21984   0.601E-04
  26 F= -.14227741E+03 E0= -.14227601E+03  d E =-.791553E-05  mag=    -0.0000
       N       E                     dE             d eps       ncg     rms          rms(c)
DAV:   1    -0.140373023586E+03   -0.15292E-03   -0.16620E-03 14208   0.165E-01    0.877E-03
DAV:   2    -0.140373022308E+03    0.12783E-05   -0.19088E-05 16416   0.181E-02    0.518E-03
DAV:   3    -0.140373022759E+03   -0.45118E-06   -0.28400E-06 16800   0.608E-03    0.125E-03
DAV:   4    -0.140373022840E+03   -0.80680E-07   -0.49640E-07 15456   0.247E-03    0.583E-04
DAV:   5    -0.140373022945E+03   -0.10499E-06   -0.14051E-08 16464   0.535E-04    0.179E-04
DAV:   6    -0.140373022968E+03   -0.23371E-07   -0.14103E-09 16320   0.129E-04    0.877E-05
DAV:   7    -0.140373022997E+03   -0.28243E-07   -0.62995E-10 18528   0.812E-05    0.275E-05
DAV:   8    -0.140373023020E+03   -0.23358E-07   -0.19516E-10 17376   0.426E-05    0.777E-06
DAV:   9    -0.140373023030E+03   -0.10391E-07   -0.59111E-11 21168   0.192E-05    0.705E-06
DAV:  10    -0.140373023036E+03   -0.58999E-08   -0.30569E-11 18048   0.139E-05
  27 F= -.14227741E+03 E0= -.14227601E+03  d E =-.854731E-05  mag=    -0.0000
       N       E                     dE             d eps       ncg     rms          rms(c)
DAV:   1    -0.140372871819E+03    0.15121E-03   -0.16861E-03 14208   0.166E-01    0.895E-03
DAV:   2    -0.140372870555E+03    0.12637E-05   -0.19569E-05 15264   0.184E-02    0.526E-03
DAV:   3    -0.140372870773E+03   -0.21859E-06   -0.29087E-06 16176   0.616E-03    0.127E-03
DAV:   4    -0.140372870909E+03   -0.13505E-06   -0.52573E-07 15552   0.250E-03    0.574E-04
DAV:   5    -0.140372871015E+03   -0.10686E-06   -0.15983E-08 16464   0.562E-04    0.129E-04
DAV:   6    -0.140372871014E+03    0.99772E-09   -0.36888E-09 18528   0.197E-04
  28 F= -.14227742E+03 E0= -.14227602E+03  d E =-.322568E-05  mag=    -0.0000
       N       E                     dE             d eps       ncg     rms          rms(c)
DAV:   1    -0.140372446071E+03    0.42494E-03   -0.13258E-02 14208   0.464E-01    0.252E-02
DAV:   2    -0.140372437921E+03    0.81498E-05   -0.15215E-04 15840   0.513E-02    0.147E-02
DAV:   3    -0.140372438615E+03   -0.69339E-06   -0.22740E-05 17040   0.172E-02    0.349E-03
DAV:   4    -0.140372438940E+03   -0.32532E-06   -0.40371E-06 17280   0.696E-03    0.158E-03
DAV:   5    -0.140372439293E+03   -0.35337E-06   -0.12014E-07 15744   0.154E-03    0.356E-04
DAV:   6    -0.140372439287E+03    0.63128E-08   -0.28432E-08 25152   0.543E-04
  29 F= -.14227742E+03 E0= -.14227602E+03  d E =-.690335E-05  mag=     0.0000
       N       E                     dE             d eps       ncg     rms          rms(c)
DAV:   1    -0.140372217601E+03    0.22169E-03   -0.35232E-03 14208   0.238E-01    0.132E-02
DAV:   2    -0.140372215401E+03    0.22005E-05   -0.40842E-05 14208   0.266E-02    0.769E-03
DAV:   3    -0.140372215489E+03   -0.88632E-07   -0.61890E-06 15360   0.904E-03    0.185E-03
DAV:   4    -0.140372215672E+03   -0.18249E-06   -0.11525E-06 15936   0.368E-03    0.835E-04
DAV:   5    -0.140372215817E+03   -0.14535E-06   -0.35235E-08 14208   0.822E-04    0.199E-04
DAV:   6    -0.140372215835E+03   -0.17886E-07   -0.68668E-09 23136   0.271E-04    0.103E-04
DAV:   7    -0.140372215854E+03   -0.18683E-07   -0.78574E-10 17760   0.984E-05    0.464E-05
DAV:   8    -0.140372215895E+03   -0.41453E-07   -0.93631E-10 17280   0.756E-05    0.392E-05
DAV:   9    -0.140372215939E+03   -0.44062E-07   -0.60104E-10 17280   0.469E-05    0.297E-05
DAV:  10    -0.140372216018E+03   -0.78581E-07   -0.14070E-09 16992   0.761E-05    0.138E-05
DAV:  11    -0.140372216039E+03   -0.20973E-07   -0.17725E-10 21600   0.373E-05    0.114E-05
DAV:  12    -0.140372216049E+03   -0.10658E-07   -0.96975E-11 17568   0.266E-05    0.443E-06
DAV:  13    -0.140372216053E+03   -0.37362E-08   -0.28832E-11 21984   0.160E-05
  30 F= -.14227743E+03 E0= -.14227603E+03  d E =-.446606E-05  mag=     0.0000
       N       E                     dE             d eps       ncg     rms          rms(c)
DAV:   1    -0.140372000485E+03    0.21556E-03   -0.32676E-03 14208   0.230E-01    0.127E-02
DAV:   2    -0.140371998367E+03    0.21186E-05   -0.38096E-05 17568   0.256E-02    0.740E-03
DAV:   3    -0.140371998516E+03   -0.14913E-06   -0.55998E-06 17232   0.845E-03    0.176E-03
DAV:   4    -0.140371998707E+03   -0.19144E-06   -0.98840E-07 15552   0.347E-03    0.806E-04
DAV:   5    -0.140371998872E+03   -0.16434E-06   -0.33048E-08 16416   0.802E-04    0.181E-04
DAV:   6    -0.140371998868E+03    0.38217E-08   -0.58395E-09 18144   0.249E-04
  31 F= -.14227743E+03 E0= -.14227603E+03  d E =-.672987E-05  mag=     0.0000
       N       E                     dE             d eps       ncg     rms          rms(c)
DAV:   1    -0.140371565282E+03    0.43359E-03   -0.13073E-02 14208   0.459E-01    0.254E-02
DAV:   2    -0.140371557390E+03    0.78923E-05   -0.15212E-04 14784   0.513E-02    0.148E-02
DAV:   3    -0.140371557976E+03   -0.58557E-06   -0.23145E-05 17376   0.174E-02    0.352E-03
DAV:   4    -0.140371558293E+03   -0.31697E-06   -0.40243E-06 17376   0.695E-03    0.162E-03
DAV:   5    -0.140371558625E+03   -0.33261E-06   -0.12625E-07 17088   0.156E-03    0.369E-04
DAV:   6    -0.140371558620E+03    0.50986E-08   -0.24771E-08 25008   0.500E-04
  32 F= -.14227743E+03 E0= -.14227603E+03  d E =-.553621E-05  mag=     0.0000
       N       E                     dE             d eps       ncg     rms          rms(c)
DAV:   1    -0.140371841814E+03   -0.28319E-03   -0.52819E-03 14208   0.292E-01    0.162E-02
DAV:   2    -0.140371838223E+03    0.35918E-05   -0.62002E-05 16416   0.326E-02    0.942E-03
DAV:   3    -0.140371839051E+03   -0.82891E-06   -0.93785E-06 19968   0.109E-02    0.223E-03
DAV:   4    -0.140371839272E+03   -0.22046E-06   -0.14589E-06 16032   0.428E-03    0.105E-03
DAV:   5    -0.140371839518E+03   -0.24648E-06   -0.53198E-08 14304   0.103E-03    0.233E-04
DAV:   6    -0.140371839530E+03   -0.11643E-07   -0.68022E-09 20544   0.275E-04    0.129E-04
DAV:   7    -0.140371839538E+03   -0.84501E-08   -0.86860E-10 19344   0.105E-04
  33 F= -.14227743E+03 E0= -.14227603E+03  d E =-.726499E-05  mag=     0.0000
       N       E                     dE             d eps       ncg     rms          rms(c)
DAV:   1    -0.140371723336E+03    0.11619E-03   -0.96496E-04 15168   0.125E-01    0.713E-03
DAV:   2    -0.140371722499E+03    0.83710E-06   -0.11144E-05 16416   0.138E-02    0.411E-03
DAV:   3    -0.140371722721E+03   -0.22257E-06   -0.16587E-06 14208   0.463E-03    0.989E-04
DAV:   4    -0.140371722814E+03   -0.92441E-07   -0.30495E-07 15552   0.193E-03    0.432E-04
DAV:   5    -0.140371722870E+03   -0.55857E-07   -0.96134E-09 17856   0.423E-04    0.102E-04
DAV:   6    -0.140371722868E+03    0.17208E-08   -0.17255E-09 17328   0.133E-04
  34 F= -.14227743E+03 E0= -.14227604E+03  d E =-.233432E-05  mag=     0.0000
       N       E                     dE             d eps       ncg     rms          rms(c)
DAV:   1    -0.140371495799E+03    0.22707E-03   -0.36235E-03 14208   0.242E-01    0.139E-02
DAV:   2    -0.140371493460E+03    0.23389E-05   -0.42030E-05 18144   0.269E-02    0.794E-03
DAV:   3    -0.140371493600E+03   -0.13988E-06   -0.61036E-06 17568   0.882E-03    0.188E-03
DAV:   4    -0.140371493791E+03   -0.19142E-06   -0.10642E-06 15744   0.362E-03    0.834E-04
DAV:   5    -0.140371493943E+03   -0.15132E-06   -0.37737E-08 18528   0.833E-04    0.193E-04
DAV:   6    -0.140371493937E+03    0.59290E-08   -0.60880E-09 19392   0.253E-04
  35 F= -.14227743E+03 E0= -.14227604E+03  d E =-.404414E-05  mag=    -0.0000
       N       E                     dE             d eps       ncg     rms          rms(c)
DAV:   1    -0.140371454732E+03    0.39210E-04   -0.14418E-04 14208   0.500E-02    0.277E-03
DAV:   2    -0.140371454571E+03    0.16076E-06   -0.18525E-06 16128   0.584E-03    0.164E-03
DAV:   3    -0.140371454635E+03   -0.63032E-07   -0.29015E-07 16176   0.207E-03    0.465E-04
DAV:   4    -0.140371454671E+03   -0.36107E-07   -0.57692E-08 15696   0.890E-04    0.265E-04
DAV:   5    -0.140371454699E+03   -0.28831E-07   -0.26700E-09 19584   0.231E-04    0.871E-05
DAV:   6    -0.140371454715E+03   -0.15482E-07   -0.61578E-10 17568   0.107E-04    0.437E-05
DAV:   7    -0.140371454726E+03   -0.11367E-07   -0.15342E-10 19632   0.587E-05    0.197E-05
DAV:   8    -0.140371454740E+03   -0.13702E-07   -0.12372E-10 17520   0.324E-05    0.123E-05
DAV:   9    -0.140371454756E+03   -0.15502E-07   -0.20299E-10 17856   0.324E-05    0.126E-05
DAV:  10    -0.140371454765E+03   -0.92568E-08   -0.15153E-10 18432   0.319E-05
  36 F= -.14227743E+03 E0= -.14227604E+03  d E =-.448327E-06  mag=     0.0000
