<?xml version="1.0" encoding="ISO-8859-1"?>
<modeling>
 <generator>
  <i name="program" type="string">vasp </i>
  <i name="version" type="string">6.3.2  </i>
  <i name="subversion" type="string">27Jun22 (build Dec 22 2022 13:13:19) complex                          parallel </i>
  <i name="platform" type="string">LinuxIFC </i>
  <i name="date" type="string">2023 08 22 </i>
  <i name="time" type="string">23:25:34 </i>
 </generator>
 <incar>
  <i type="string" name="SYSTEM">Lattice</i>
  <i type="int" name="ISTART">     0</i>
  <i type="string" name="PREC">Accurate</i>
  <i type="string" name="ALGO">Normal</i>
  <i type="int" name="ISPIN">     2</i>
  <i type="int" name="ICHARG">     2</i>
  <i type="int" name="NELM">    64</i>
  <i type="int" name="IBRION">     2</i>
  <i name="EDIFF">      0.00000100</i>
  <i name="EDIFFG">     -0.00100000</i>
  <i type="int" name="NSW">   128</i>
  <i type="int" name="ISIF">     2</i>
  <i name="ENCUT">    450.00000000</i>
  <i name="POTIM">      0.50000000</i>
  <i type="int" name="ISMEAR">     0</i>
  <i name="SIGMA">      0.10000000</i>
  <i type="logical" name="LWAVE"> F  </i>
  <i type="logical" name="LCHARG"> F  </i>
  <i type="string" name="GGA">PE</i>
  <i type="int" name="IVDW">    12</i>
 </incar>
 <primitive_cell>
  <structure name="primitive_cell" >
   <crystal>
    <varray name="basis" >
     <v>       4.19675911       2.42300000       0.00000000 </v>
     <v>      -4.19675911       2.42300000       0.00000000 </v>
     <v>       0.00000000       0.00000000      15.00000000 </v>
    </varray>
    <i name="volume">    305.06241947 </i>
    <varray name="rec_basis" >
     <v>       0.11913955       0.20635576       0.00000000 </v>
     <v>      -0.11913955       0.20635576       0.00000000 </v>
     <v>       0.00000000       0.00000000       0.06666667 </v>
    </varray>
   </crystal>
   <varray name="positions" >
    <v>       0.00415361       0.00267210       0.12034134 </v>
    <v>       0.35695335       0.00285503       0.09748893 </v>
    <v>       0.00423858       0.35550699       0.09749256 </v>
    <v>       0.65142295       0.65006557       0.09747688 </v>
    <v>       0.32808646       0.32671938       0.10030508 </v>
    <v>       0.68027775       0.00278085       0.10027562 </v>
    <v>       0.00416530       0.67883808       0.10026559 </v>
    <v>       0.16666600       0.33333300       0.33720000 </v>
    <v>       0.33333300       0.16666600       0.33720000 </v>
    <v>       0.16666600       0.83333300       0.33720000 </v>
    <v>       0.33333300       0.66666600       0.33720000 </v>
    <v>       0.66666600       0.33333300       0.33720000 </v>
    <v>       0.83333300       0.16666600       0.33720000 </v>
    <v>       0.66666600       0.83333300       0.33720000 </v>
    <v>       0.83333300       0.66666600       0.33720000 </v>
   </varray>
  </structure>
  <varray name="primitive_index" >
   <v type="int" >        1 </v>
   <v type="int" >        2 </v>
   <v type="int" >        3 </v>
   <v type="int" >        4 </v>
   <v type="int" >        5 </v>
   <v type="int" >        6 </v>
   <v type="int" >        7 </v>
   <v type="int" >        8 </v>
   <v type="int" >        9 </v>
   <v type="int" >       10 </v>
   <v type="int" >       11 </v>
   <v type="int" >       12 </v>
   <v type="int" >       13 </v>
   <v type="int" >       14 </v>
   <v type="int" >       15 </v>
  </varray>
 </primitive_cell>
 <kpoints>
  <generation param="Gamma">
   <v type="int" name="divisions">      12       12        1 </v>
   <v name="usershift">      0.00000000       0.00000000       0.00000000 </v>
   <v name="genvec1">      0.08333333       0.00000000       0.00000000 </v>
   <v name="genvec2">      0.00000000       0.08333333       0.00000000 </v>
   <v name="genvec3">      0.00000000       0.00000000       1.00000000 </v>
   <v name="shift">      0.00000000       0.00000000       0.00000000 </v>
  </generation>
  <varray name="kpointlist" >
   <v>       0.00000000       0.00000000       0.00000000 </v>
   <v>       0.08333333       0.00000000       0.00000000 </v>
   <v>      -0.00000000       0.08333333       0.00000000 </v>
   <v>      -0.08333333       0.08333333       0.00000000 </v>
   <v>       0.16666667      -0.00000000       0.00000000 </v>
   <v>      -0.00000000       0.16666667       0.00000000 </v>
   <v>      -0.16666667       0.16666667       0.00000000 </v>
   <v>       0.25000000       0.00000000       0.00000000 </v>
   <v>      -0.00000000       0.25000000       0.00000000 </v>
   <v>      -0.25000000       0.25000000       0.00000000 </v>
   <v>       0.33333333       0.00000000       0.00000000 </v>
   <v>      -0.00000000       0.33333333       0.00000000 </v>
   <v>      -0.33333333       0.33333333       0.00000000 </v>
   <v>       0.41666667       0.00000000       0.00000000 </v>
   <v>       0.00000000       0.41666667       0.00000000 </v>
   <v>      -0.41666667       0.41666667       0.00000000 </v>
   <v>       0.50000000       0.00000000       0.00000000 </v>
   <v>      -0.00000000       0.50000000       0.00000000 </v>
   <v>       0.50000000       0.50000000       0.00000000 </v>
   <v>       0.08333333       0.08333333       0.00000000 </v>
   <v>      -0.08333333       0.16666667       0.00000000 </v>
   <v>      -0.16666667       0.08333333       0.00000000 </v>
   <v>       0.16666667       0.08333333       0.00000000 </v>
   <v>      -0.08333333       0.25000000       0.00000000 </v>
   <v>      -0.25000000       0.16666667       0.00000000 </v>
   <v>      -0.16666667       0.25000000       0.00000000 </v>
   <v>       0.08333333       0.16666667       0.00000000 </v>
   <v>       0.25000000      -0.08333333       0.00000000 </v>
   <v>       0.25000000       0.08333333       0.00000000 </v>
   <v>      -0.08333333       0.33333333       0.00000000 </v>
   <v>      -0.33333333       0.25000000       0.00000000 </v>
   <v>      -0.25000000       0.33333333       0.00000000 </v>
   <v>       0.08333333       0.25000000       0.00000000 </v>
   <v>       0.33333333      -0.08333333       0.00000000 </v>
   <v>       0.33333333       0.08333333       0.00000000 </v>
   <v>      -0.08333333       0.41666667       0.00000000 </v>
   <v>      -0.41666667       0.33333333       0.00000000 </v>
   <v>      -0.33333333       0.41666667       0.00000000 </v>
   <v>       0.08333333       0.33333333       0.00000000 </v>
   <v>       0.41666667      -0.08333333       0.00000000 </v>
   <v>       0.41666667       0.08333333       0.00000000 </v>
   <v>      -0.08333333       0.50000000       0.00000000 </v>
   <v>       0.50000000       0.41666667       0.00000000 </v>
   <v>      -0.41666667       0.50000000       0.00000000 </v>
   <v>       0.08333333       0.41666667       0.00000000 </v>
   <v>       0.50000000      -0.08333333       0.00000000 </v>
   <v>       0.16666667       0.16666667       0.00000000 </v>
   <v>      -0.16666667       0.33333333       0.00000000 </v>
   <v>      -0.33333333       0.16666667       0.00000000 </v>
   <v>       0.25000000       0.16666667       0.00000000 </v>
   <v>      -0.16666667       0.41666667       0.00000000 </v>
   <v>      -0.41666667       0.25000000       0.00000000 </v>
   <v>      -0.25000000       0.41666667       0.00000000 </v>
   <v>       0.16666667       0.25000000       0.00000000 </v>
   <v>       0.41666667      -0.16666667       0.00000000 </v>
   <v>       0.33333333       0.16666667       0.00000000 </v>
   <v>      -0.16666667       0.50000000       0.00000000 </v>
   <v>       0.50000000       0.33333333       0.00000000 </v>
   <v>      -0.33333333       0.50000000       0.00000000 </v>
   <v>       0.16666667       0.33333333       0.00000000 </v>
   <v>       0.50000000      -0.16666667       0.00000000 </v>
   <v>       0.41666667       0.16666667       0.00000000 </v>
   <v>      -0.16666667      -0.41666667       0.00000000 </v>
   <v>       0.41666667       0.41666667       0.00000000 </v>
   <v>       0.25000000       0.25000000       0.00000000 </v>
   <v>      -0.25000000       0.50000000       0.00000000 </v>
   <v>       0.50000000       0.25000000       0.00000000 </v>
   <v>       0.33333333       0.25000000       0.00000000 </v>
   <v>      -0.25000000      -0.41666667       0.00000000 </v>
   <v>       0.41666667       0.33333333       0.00000000 </v>
   <v>      -0.33333333      -0.41666667       0.00000000 </v>
   <v>       0.25000000       0.33333333       0.00000000 </v>
   <v>      -0.41666667      -0.25000000       0.00000000 </v>
   <v>       0.33333333       0.33333333       0.00000000 </v>
  </varray>
  <varray name="weights" >
   <v>       0.00694444 </v>
   <v>       0.01388889 </v>
   <v>       0.01388889 </v>
   <v>       0.01388889 </v>
   <v>       0.01388889 </v>
   <v>       0.01388889 </v>
   <v>       0.01388889 </v>
   <v>       0.01388889 </v>
   <v>       0.01388889 </v>
   <v>       0.01388889 </v>
   <v>       0.01388889 </v>
   <v>       0.01388889 </v>
   <v>       0.01388889 </v>
   <v>       0.01388889 </v>
   <v>       0.01388889 </v>
   <v>       0.01388889 </v>
   <v>       0.00694444 </v>
   <v>       0.00694444 </v>
   <v>       0.00694444 </v>
   <v>       0.01388889 </v>
   <v>       0.01388889 </v>
   <v>       0.01388889 </v>
   <v>       0.01388889 </v>
   <v>       0.01388889 </v>
   <v>       0.01388889 </v>
   <v>       0.01388889 </v>
   <v>       0.01388889 </v>
   <v>       0.01388889 </v>
   <v>       0.01388889 </v>
   <v>       0.01388889 </v>
   <v>       0.01388889 </v>
   <v>       0.01388889 </v>
   <v>       0.01388889 </v>
   <v>       0.01388889 </v>
   <v>       0.01388889 </v>
   <v>       0.01388889 </v>
   <v>       0.01388889 </v>
   <v>       0.01388889 </v>
   <v>       0.01388889 </v>
   <v>       0.01388889 </v>
   <v>       0.01388889 </v>
   <v>       0.01388889 </v>
   <v>       0.01388889 </v>
   <v>       0.01388889 </v>
   <v>       0.01388889 </v>
   <v>       0.01388889 </v>
   <v>       0.01388889 </v>
   <v>       0.01388889 </v>
   <v>       0.01388889 </v>
   <v>       0.01388889 </v>
   <v>       0.01388889 </v>
   <v>       0.01388889 </v>
   <v>       0.01388889 </v>
   <v>       0.01388889 </v>
   <v>       0.01388889 </v>
   <v>       0.01388889 </v>
   <v>       0.01388889 </v>
   <v>       0.01388889 </v>
   <v>       0.01388889 </v>
   <v>       0.01388889 </v>
   <v>       0.01388889 </v>
   <v>       0.01388889 </v>
   <v>       0.01388889 </v>
   <v>       0.01388889 </v>
   <v>       0.01388889 </v>
   <v>       0.01388889 </v>
   <v>       0.01388889 </v>
   <v>       0.01388889 </v>
   <v>       0.01388889 </v>
   <v>       0.01388889 </v>
   <v>       0.01388889 </v>
   <v>       0.01388889 </v>
   <v>       0.01388889 </v>
   <v>       0.01388889 </v>
  </varray>
 </kpoints>
 <parameters>
  <separator name="general" >
   <i type="string" name="SYSTEM">Lattice</i>
   <i type="logical" name="LCOMPAT"> F  </i>
  </separator>
  <separator name="electronic" >
   <i type="string" name="PREC">accura</i>
   <i name="ENMAX">    450.00000000</i>
   <i name="ENAUG">    644.87300000</i>
   <i name="EDIFF">      0.00000100</i>
   <i type="int" name="IALGO">    38</i>
   <i type="int" name="IWAVPR">    11</i>
   <i type="int" name="NBANDS">    48</i>
   <i type="int" name="NBANDSLOW">    -1</i>
   <i type="int" name="NBANDSHIGH">    -1</i>
   <i name="NELECT">     56.00000000</i>
   <i type="int" name="TURBO">     0</i>
   <i type="int" name="IRESTART">     0</i>
   <i type="int" name="NREBOOT">     0</i>
   <i type="int" name="NMIN">     0</i>
   <i name="EREF">      0.00000000</i>
   <separator name="electronic smearing" >
    <i type="int" name="ISMEAR">     0</i>
    <i name="SIGMA">      0.10000000</i>
    <i name="KSPACING">      0.50000000</i>
    <i type="logical" name="KGAMMA"> T  </i>
    <i type="logical" name="KBLOWUP"> T  </i>
   </separator>
   <separator name="electronic projectors" >
    <i type="logical" name="LREAL"> F  </i>
    <v name="ROPT">      0.00000000      0.00000000</v>
    <i type="int" name="LMAXPAW">  -100</i>
    <i type="int" name="LMAXMIX">     2</i>
    <i type="logical" name="NLSPLINE"> F  </i>
   </separator>
   <separator name="electronic startup" >
    <i type="int" name="ISTART">     0</i>
    <i type="int" name="ICHARG">     2</i>
    <i type="int" name="INIWAV">     1</i>
   </separator>
   <separator name="electronic spin" >
    <i type="int" name="ISPIN">     2</i>
    <i type="logical" name="LNONCOLLINEAR"> F  </i>
    <v name="MAGMOM">      1.00000000      1.00000000      1.00000000      1.00000000      1.00000000      1.00000000      1.00000000      1.00000000      1.00000000      1.00000000      1.00000000      1.00000000      1.00000000      1.00000000      1.00000000</v>
    <i name="NUPDOWN">     -1.00000000</i>
    <i type="logical" name="LSORBIT"> F  </i>
    <v name="SAXIS">      0.00000000      0.00000000      1.00000000</v>
    <i type="logical" name="LSPIRAL"> F  </i>
    <v name="QSPIRAL">      0.00000000      0.00000000      0.00000000</v>
    <i type="logical" name="LZEROZ"> F  </i>
   </separator>
   <separator name="electronic exchange-correlation" >
    <i type="logical" name="LASPH"> F  </i>
    <i type="logical" name="LMETAGGA"> F  </i>
   </separator>
   <separator name="electronic convergence" >
    <i type="int" name="NELM">    64</i>
    <i type="int" name="NELMDL">    -5</i>
    <i type="int" name="NELMIN">     2</i>
    <i name="ENINI">    450.00000000</i>
    <separator name="electronic convergence detail" >
     <i type="logical" name="LDIAG"> T  </i>
     <i type="logical" name="LSUBROT"> F  </i>
     <i name="WEIMIN">      0.00100000</i>
     <i name="EBREAK">      0.00000001</i>
     <i name="DEPER">      0.30000000</i>
     <i type="int" name="NRMM">     4</i>
     <i name="TIME">      0.40000000</i>
    </separator>
   </separator>
   <separator name="electronic mixer" >
    <i name="AMIX">      0.40000000</i>
    <i name="BMIX">      1.00000000</i>
    <i name="AMIN">      0.10000000</i>
    <i name="AMIX_MAG">      1.60000000</i>
    <i name="BMIX_MAG">      1.00000000</i>
    <separator name="electronic mixer details" >
     <i type="int" name="IMIX">     4</i>
     <i type="logical" name="MIXFIRST"> F  </i>
     <i type="int" name="MAXMIX">   -45</i>
     <i name="WC">    100.00000000</i>
     <i type="int" name="INIMIX">     1</i>
     <i type="int" name="MIXPRE">     1</i>
     <i type="int" name="MREMOVE">     5</i>
    </separator>
   </separator>
   <separator name="electronic dipolcorrection" >
    <i type="logical" name="LDIPOL"> F  </i>
    <i type="logical" name="LMONO"> F  </i>
    <i type="int" name="IDIPOL">     0</i>
    <i name="EPSILON">      1.00000000</i>
    <v name="DIPOL">   -100.00000000   -100.00000000   -100.00000000</v>
    <i name="EFIELD">      0.00000000</i>
   </separator>
  </separator>
  <separator name="grids" >
   <i type="int" name="NGX">    36</i>
   <i type="int" name="NGY">    36</i>
   <i type="int" name="NGZ">   108</i>
   <i type="int" name="NGXF">    72</i>
   <i type="int" name="NGYF">    72</i>
   <i type="int" name="NGZF">   216</i>
   <i type="logical" name="ADDGRID"> F  </i>
  </separator>
  <separator name="ionic" >
   <i type="int" name="NSW">   128</i>
   <i type="int" name="IBRION">     2</i>
   <i type="int" name="MDALGO">     0</i>
   <i type="int" name="ISIF">     2</i>
   <i name="PSTRESS">      0.00000000</i>
   <i name="EDIFFG">     -0.00100000</i>
   <i type="int" name="NFREE">     1</i>
   <i name="POTIM">      0.50000000</i>
   <i name="SMASS">     -3.00000000</i>
   <i name="SCALEE">      1.00000000</i>
  </separator>
  <separator name="ionic md" >
   <i name="TEBEG">      0.00010000</i>
   <i name="TEEND">      0.00010000</i>
   <i type="int" name="NBLOCK">     1</i>
   <i type="int" name="KBLOCK">   128</i>
   <i type="int" name="NPACO">   256</i>
   <i name="APACO">     10.00000000</i>
  </separator>
  <separator name="symmetry" >
   <i type="int" name="ISYM">     2</i>
   <i name="SYMPREC">      0.00001000</i>
  </separator>
  <separator name="dos" >
   <i type="int" name="LORBIT">     0</i>
   <v name="RWIGS">     -1.00000000     -1.00000000</v>
   <i type="int" name="NEDOS">   301</i>
   <i name="EMIN">     10.00000000</i>
   <i name="EMAX">    -10.00000000</i>
   <i name="EFERMI">      0.00000000</i>
  </separator>
  <separator name="writing" >
   <i type="int" name="NWRITE">     2</i>
   <i type="logical" name="LWAVE"> F  </i>
   <i type="logical" name="LDOWNSAMPLE"> F  </i>
   <i type="logical" name="LCHARG"> F  </i>
   <i type="logical" name="LPARD"> F  </i>
   <i type="logical" name="LVTOT"> F  </i>
   <i type="logical" name="LVHAR"> F  </i>
   <i type="logical" name="LELF"> F  </i>
   <i type="logical" name="LOPTICS"> F  </i>
   <v name="STM">      0.00000000      0.00000000      0.00000000      0.00000000      0.00000000      0.00000000      0.00000000</v>
  </separator>
  <separator name="performance" >
   <i type="int" name="NPAR">    48</i>
   <i type="int" name="NSIM">     4</i>
   <i type="int" name="NBLK">    -1</i>
   <i type="logical" name="LPLANE"> T  </i>
   <i type="logical" name="LSCALAPACK"> T  </i>
   <i type="logical" name="LSCAAWARE"> F  </i>
   <i type="logical" name="LSCALU"> F  </i>
   <i type="logical" name="LASYNC"> F  </i>
   <i type="logical" name="LORBITALREAL"> F  </i>
  </separator>
  <separator name="miscellaneous" >
   <i type="int" name="IDIOT">     3</i>
   <i type="int" name="PHON_NSTRUCT">    -1</i>
   <i type="logical" name="LMUSIC"> F  </i>
   <v name="POMASS">     10.81100000     12.01100000</v>
   <v name="DARWINR">      0.00000000      0.00000000</v>
   <v name="DARWINV">      1.00000000      1.00000000</v>
   <i type="logical" name="LCORR"> T  </i>
  </separator>
  <i type="logical" name="GGA_COMPAT"> T  </i>
  <i type="logical" name="LBERRY"> F  </i>
  <i type="int" name="ICORELEVEL">     0</i>
  <i type="logical" name="LDAU"> F  </i>
  <i type="int" name="I_CONSTRAINED_M">     0</i>
  <separator name="electronic exchange-correlation" >
   <i type="string" name="GGA">PE</i>
   <i type="int" name="VOSKOWN">     0</i>
   <i type="logical" name="LHFCALC"> F  </i>
   <i type="string" name="PRECFOCK"></i>
   <i type="logical" name="LSYMGRAD"> F  </i>
   <i type="logical" name="LHFONE"> F  </i>
   <i type="logical" name="LRHFCALC"> F  </i>
   <i type="logical" name="LTHOMAS"> F  </i>
   <i type="logical" name="LMODELHF"> F  </i>
   <i type="logical" name="LFOCKACE"> F  </i>
   <i name="ENCUT4O">     -1.00000000</i>
   <i type="int" name="EXXOEP">     0</i>
   <i type="int" name="FOURORBIT">     0</i>
   <i name="AEXX">      0.00000000</i>
   <i name="HFALPHA">      0.00000000</i>
   <i name="MCALPHA">      0.00000000</i>
   <i name="ALDAX">      1.00000000</i>
   <i name="AGGAX">      1.00000000</i>
   <i name="ALDAC">      1.00000000</i>
   <i name="AGGAC">      1.00000000</i>
   <i type="int" name="NKREDX">     1</i>
   <i type="int" name="NKREDY">     1</i>
   <i type="int" name="NKREDZ">     1</i>
   <i type="logical" name="SHIFTRED"> F  </i>
   <i type="logical" name="ODDONLY"> F  </i>
   <i type="logical" name="EVENONLY"> F  </i>
   <i type="int" name="LMAXFOCK">     0</i>
   <i type="int" name="NMAXFOCKAE">     0</i>
   <i type="logical" name="LFOCKAEDFT"> F  </i>
   <i name="HFSCREEN">      0.00000000</i>
   <i name="HFSCREENC">      0.00000000</i>
   <i type="int" name="NBANDSGWLOW">     0</i>
  </separator>
  <separator name="vdW DFT" >
   <i type="logical" name="LUSE_VDW"> F  </i>
   <i name="Zab_VDW">     -0.84910000</i>
   <i name="PARAM1">      0.12340000</i>
   <i name="PARAM2">      1.00000000</i>
   <i name="PARAM3">      0.00000000</i>
  </separator>
  <separator name="model GW" >
   <i type="int" name="MODEL_GW">     0</i>
   <i name="MODEL_EPS0">     12.20249678</i>
   <i name="MODEL_ALPHA">      1.00000000</i>
  </separator>
  <separator name="linear response parameters" >
   <i type="logical" name="LEPSILON"> F  </i>
   <i type="logical" name="LRPA"> F  </i>
   <i type="logical" name="LNABLA"> F  </i>
   <i type="logical" name="LVEL"> F  </i>
   <i name="CSHIFT">      0.10000000</i>
   <i name="OMEGAMAX">     -1.00000000</i>
   <i name="DEG_THRESHOLD">      0.00200000</i>
   <i name="RTIME">     -0.10000000</i>
   <i name="WPLASMAI">      0.00000000</i>
   <v name="DFIELD">      0.00000000      0.00000000      0.00000000</v>
   <v name="WPLASMA">      0.00000000      0.00000000      0.00000000      0.00000000      0.00000000      0.00000000      0.00000000      0.00000000      0.00000000</v>
  </separator>
  <separator name="orbital magnetization" >
   <i type="logical" name="NUCIND"> F  </i>
   <v name="MAGPOS">      0.00000000      0.00000000      0.00000000</v>
   <i type="logical" name="LNICSALL"> T  </i>
   <i type="logical" name="ORBITALMAG"> F  </i>
   <i type="logical" name="LMAGBLOCH"> F  </i>
   <i type="logical" name="LCHIMAG"> F  </i>
   <i type="logical" name="LGAUGE"> T  </i>
   <i type="int" name="MAGATOM">     0</i>
   <v name="MAGDIPOL">      0.00000000      0.00000000      0.00000000</v>
   <v name="AVECCONST">      0.00000000      0.00000000      0.00000000</v>
  </separator>
  <separator name="response functions" >
   <i type="logical" name="LFINITE_TEMPERATURE"> F  </i>
   <i type="logical" name="LADDER"> F  </i>
   <i type="logical" name="LRPAFORCE"> F  </i>
   <i type="logical" name="LFXC"> F  </i>
   <i type="logical" name="LHARTREE"> T  </i>
   <i type="int" name="IBSE">     0</i>
   <v type="int" name="KPOINT">    -1     0     0     0</v>
   <i type="logical" name="LTCTC"> F  </i>
   <i type="logical" name="LTCTE"> F  </i>
   <i type="logical" name="LTETE"> F  </i>
   <i type="logical" name="LTRIPLET"> F  </i>
   <i type="logical" name="LFXCEPS"> F  </i>
   <i type="logical" name="LFXHEG"> F  </i>
   <i type="int" name="NATURALO">     2</i>
   <i type="logical" name="LHOLEGF"> F  </i>
   <i type="logical" name="L2ORDER"> F  </i>
   <i type="logical" name="LDMP1"> F  </i>
   <i type="logical" name="LMP2LT"> F  </i>
   <i type="logical" name="LSMP2LT"> F  </i>
   <i type="logical" name="LGWLF"> F  </i>
   <i name="ENCUTGW">     -2.00000000</i>
   <i name="ENCUTGWSOFT">     -2.00000000</i>
   <i name="ENCUTLF">     -1.00000000</i>
   <i type="logical" name="LESF_SPLINES"> F  </i>
   <i type="int" name="LMAXMP2">    -1</i>
   <i name="SCISSOR">      0.00000000</i>
   <i type="int" name="NOMEGA">     0</i>
   <i type="int" name="NOMEGAR">     0</i>
   <i type="int" name="NBANDSGW">    -1</i>
   <i type="int" name="NBANDSO">    -1</i>
   <i type="int" name="NBANDSV">    -1</i>
   <i type="int" name="NELMGW">     1</i>
   <i type="int" name="NELMHF">     1</i>
   <i type="int" name="DIM">     3</i>
   <i type="int" name="IESPILON">     4</i>
   <i type="int" name="ANTIRES">     0</i>
   <i name="OMEGAMAX">    -30.00000000</i>
   <i name="OMEGAMIN">    -30.00000000</i>
   <i name="OMEGATL">   -200.00000000</i>
   <i type="int" name="OMEGAGRID">     0</i>
   <i name="CSHIFT">     -0.10000000</i>
   <i type="logical" name="LSELFENERGY"> F  </i>
   <i type="logical" name="LSPECTRAL"> F  </i>
   <i type="logical" name="LSPECTRALGW"> F  </i>
   <i type="logical" name="LSINGLES"> F  </i>
   <i type="logical" name="LFERMIGW"> F  </i>
   <i type="logical" name="ODDONLYGW"> F  </i>
   <i type="logical" name="EVENONLYGW"> F  </i>
   <i type="int" name="NKREDLFX">     1</i>
   <i type="int" name="NKREDLFY">     1</i>
   <i type="int" name="NKREDLFZ">     1</i>
   <i type="int" name="MAXMEM">  2800</i>
   <i type="int" name="TELESCOPE">     0</i>
   <i type="int" name="NTAUPAR">    -1</i>
   <i type="int" name="NOMEGAPAR">    -1</i>
   <i name="DAMP_NEWTON">      0.80000001</i>
   <i name="LAMBDA">      1.00000000</i>
  </separator>
  <separator name="External order field" >
   <i name="OFIELD_KAPPA">      0.00000000</i>
   <v name="OFIELD_K">      0.00000000      0.00000000      0.00000000</v>
   <i name="OFIELD_Q6_NEAR">      0.00000000</i>
   <i name="OFIELD_Q6_FAR">      0.00000000</i>
   <i name="OFIELD_A">      0.00000000</i>
  </separator>
  <separator name="optional k-points parameters" >
   <i type="int" name="KPOINTS_OPT_MODE">     1</i>
   <i type="logical" name="LKPOINTS_OPT"> F  </i>
  </separator>
  <separator name="solvation model" >
   <i type="logical" name="LSOL"> F  </i>
  </separator>
 </parameters>
 <atominfo>
  <atoms>      15 </atoms>
  <types>       2 </types>
  <array name="atoms" >
   <dimension dim="1">ion</dimension>
   <field type="string">element</field>
   <field type="int">atomtype</field>
   <set>
    <rc><c>B </c><c>   1</c></rc>
    <rc><c>B </c><c>   1</c></rc>
    <rc><c>B </c><c>   1</c></rc>
    <rc><c>B </c><c>   1</c></rc>
    <rc><c>C </c><c>   2</c></rc>
    <rc><c>C </c><c>   2</c></rc>
    <rc><c>C </c><c>   2</c></rc>
    <rc><c>C </c><c>   2</c></rc>
    <rc><c>C </c><c>   2</c></rc>
    <rc><c>C </c><c>   2</c></rc>
    <rc><c>C </c><c>   2</c></rc>
    <rc><c>C </c><c>   2</c></rc>
    <rc><c>C </c><c>   2</c></rc>
    <rc><c>C </c><c>   2</c></rc>
    <rc><c>C </c><c>   2</c></rc>
   </set>
  </array>
  <array name="atomtypes" >
   <dimension dim="1">type</dimension>
   <field type="int">atomspertype</field>
   <field type="string">element</field>
   <field>mass</field>
   <field>valence</field>
   <field type="string">pseudopotential</field>
   <set>
    <rc><c>   4</c><c>B </c><c>     10.81100000</c><c>      3.00000000</c><c>  PAW_PBE B 06Sep2000                   </c></rc>
    <rc><c>  11</c><c>C </c><c>     12.01100000</c><c>      4.00000000</c><c>  PAW_PBE C 08Apr2002                   </c></rc>
   </set>
  </array>
 </atominfo>
 <structure name="initialpos" >
  <crystal>
   <varray name="basis" >
    <v>       4.19675911       2.42300000       0.00000000 </v>
    <v>      -4.19675911       2.42300000       0.00000000 </v>
    <v>       0.00000000       0.00000000      15.00000000 </v>
   </varray>
   <i name="volume">    305.06241947 </i>
   <varray name="rec_basis" >
    <v>       0.11913955       0.20635576       0.00000000 </v>
    <v>      -0.11913955       0.20635576       0.00000000 </v>
    <v>       0.00000000       0.00000000       0.06666667 </v>
   </varray>
  </crystal>
  <varray name="positions" >
   <v>       0.00415361       0.00267210       0.12034134 </v>
   <v>       0.35695335       0.00285503       0.09748893 </v>
   <v>       0.00423858       0.35550699       0.09749256 </v>
   <v>       0.65142295       0.65006557       0.09747688 </v>
   <v>       0.32808646       0.32671938       0.10030508 </v>
   <v>       0.68027775       0.00278085       0.10027562 </v>
   <v>       0.00416530       0.67883808       0.10026559 </v>
   <v>       0.16666600       0.33333300       0.33720000 </v>
   <v>       0.33333300       0.16666600       0.33720000 </v>
   <v>       0.16666600       0.83333300       0.33720000 </v>
   <v>       0.33333300       0.66666600       0.33720000 </v>
   <v>       0.66666600       0.33333300       0.33720000 </v>
   <v>       0.83333300       0.16666600       0.33720000 </v>
   <v>       0.66666600       0.83333300       0.33720000 </v>
   <v>       0.83333300       0.66666600       0.33720000 </v>
  </varray>
 </structure>
 <calculation>
  <scstep>
   <time name="dav">    5.49    5.55</time>
   <time name="total">    5.54    5.60</time>
   <energy>
    <i name="alphaZ">     58.30706670 </i>
    <i name="ewald">   4687.72167433 </i>
    <i name="hartreedc">  -6244.05255782 </i>
    <i name="XCdc">    175.08823268 </i>
    <i name="pawpsdc">   1365.87943566 </i>
    <i name="pawaedc">  -1368.52100941 </i>
    <i name="eentropy">     -0.01670993 </i>
    <i name="bandstr">   -375.81373402 </i>
    <i name="atom">   1903.26342058 </i>
    <i name="e_fr_energy">    201.85581877 </i>
    <i name="e_wo_entrp">    201.87252870 </i>
    <i name="e_0_energy">    201.86417373 </i>
   </energy>
  </scstep>
  <scstep>
   <time name="dav">    7.82    7.90</time>
   <time name="total">    7.83    7.90</time>
   <energy>
    <i name="e_fr_energy">   -116.04241162 </i>
    <i name="e_wo_entrp">   -116.04139557 </i>
    <i name="e_0_energy">   -116.04190360 </i>
   </energy>
  </scstep>
  <scstep>
   <time name="dav">   11.28   11.35</time>
   <time name="total">   11.28   11.35</time>
   <energy>
    <i name="e_fr_energy">   -129.37286996 </i>
    <i name="e_wo_entrp">   -129.36976630 </i>
    <i name="e_0_energy">   -129.37131813 </i>
   </energy>
  </scstep>
  <scstep>
   <time name="dav">    8.22    8.29</time>
   <time name="total">    8.22    8.29</time>
   <energy>
    <i name="e_fr_energy">   -129.39876354 </i>
    <i name="e_wo_entrp">   -129.39564923 </i>
    <i name="e_0_energy">   -129.39720639 </i>
   </energy>
  </scstep>
  <scstep>
   <time name="dav">   10.85   10.94</time>
   <time name="total">   11.11   11.21</time>
   <energy>
    <i name="e_fr_energy">   -129.39882691 </i>
    <i name="e_wo_entrp">   -129.39571253 </i>
    <i name="e_0_energy">   -129.39726972 </i>
   </energy>
  </scstep>
  <scstep>
   <time name="dav">   10.73   10.80</time>
   <time name="total">   11.03   11.11</time>
   <energy>
    <i name="e_fr_energy">    -92.02968749 </i>
    <i name="e_wo_entrp">    -92.02287279 </i>
    <i name="e_0_energy">    -92.02628014 </i>
   </energy>
  </scstep>
  <scstep>
   <time name="dav">    9.00    9.07</time>
   <time name="total">    9.30    9.38</time>
   <energy>
    <i name="e_fr_energy">   -100.46630818 </i>
    <i name="e_wo_entrp">   -100.46041608 </i>
    <i name="e_0_energy">   -100.46336213 </i>
   </energy>
  </scstep>
  <scstep>
   <time name="dav">   10.05   10.12</time>
   <time name="total">   10.34   10.42</time>
   <energy>
    <i name="e_fr_energy">   -110.49196801 </i>
    <i name="e_wo_entrp">   -110.49193075 </i>
    <i name="e_0_energy">   -110.49194938 </i>
   </energy>
  </scstep>
  <scstep>
   <time name="dav">    7.91    7.96</time>
   <time name="total">    8.21    8.26</time>
   <energy>
    <i name="e_fr_energy">   -117.15028921 </i>
    <i name="e_wo_entrp">   -117.15028513 </i>
    <i name="e_0_energy">   -117.15028717 </i>
   </energy>
  </scstep>
  <scstep>
   <time name="dav">    9.78    9.84</time>
   <time name="total">   10.07   10.14</time>
   <energy>
    <i name="e_fr_energy">   -123.49418990 </i>
    <i name="e_wo_entrp">   -123.49357259 </i>
    <i name="e_0_energy">   -123.49388125 </i>
   </energy>
  </scstep>
  <scstep>
   <time name="dav">   10.11   10.17</time>
   <time name="total">   10.40   10.48</time>
   <energy>
    <i name="e_fr_energy">   -125.29792912 </i>
    <i name="e_wo_entrp">   -125.29674231 </i>
    <i name="e_0_energy">   -125.29733571 </i>
   </energy>
  </scstep>
  <scstep>
   <time name="dav">    8.17    8.22</time>
   <time name="total">    8.46    8.53</time>
   <energy>
    <i name="e_fr_energy">   -125.42514895 </i>
    <i name="e_wo_entrp">   -125.42367686 </i>
    <i name="e_0_energy">   -125.42441291 </i>
   </energy>
  </scstep>
  <scstep>
   <time name="dav">    6.88    7.31</time>
   <time name="total">    7.17    7.62</time>
   <energy>
    <i name="e_fr_energy">   -125.45197804 </i>
    <i name="e_wo_entrp">   -125.45041752 </i>
    <i name="e_0_energy">   -125.45119778 </i>
   </energy>
  </scstep>
  <scstep>
   <time name="dav">    8.35    8.40</time>
   <time name="total">    8.64    8.70</time>
   <energy>
    <i name="e_fr_energy">   -125.47600800 </i>
    <i name="e_wo_entrp">   -125.47444169 </i>
    <i name="e_0_energy">   -125.47522485 </i>
   </energy>
  </scstep>
  <scstep>
   <time name="dav">    7.26    7.30</time>
   <time name="total">    7.55    7.60</time>
   <energy>
    <i name="e_fr_energy">   -125.48410151 </i>
    <i name="e_wo_entrp">   -125.48253436 </i>
    <i name="e_0_energy">   -125.48331794 </i>
   </energy>
  </scstep>
  <scstep>
   <time name="dav">    6.91    6.97</time>
   <time name="total">    7.20    7.27</time>
   <energy>
    <i name="e_fr_energy">   -125.48618016 </i>
    <i name="e_wo_entrp">   -125.48461297 </i>
    <i name="e_0_energy">   -125.48539656 </i>
   </energy>
  </scstep>
  <scstep>
   <time name="dav">    5.83    5.87</time>
   <time name="total">    6.12    6.17</time>
   <energy>
    <i name="e_fr_energy">   -125.48747611 </i>
    <i name="e_wo_entrp">   -125.48590893 </i>
    <i name="e_0_energy">   -125.48669252 </i>
   </energy>
  </scstep>
  <scstep>
   <time name="dav">    6.28    6.32</time>
   <time name="total">    6.57    6.62</time>
   <energy>
    <i name="e_fr_energy">   -125.48816140 </i>
    <i name="e_wo_entrp">   -125.48659424 </i>
    <i name="e_0_energy">   -125.48737782 </i>
   </energy>
  </scstep>
  <scstep>
   <time name="dav">    7.84    7.89</time>
   <time name="total">    8.15    8.24</time>
   <energy>
    <i name="e_fr_energy">   -125.48863051 </i>
    <i name="e_wo_entrp">   -125.48706333 </i>
    <i name="e_0_energy">   -125.48784692 </i>
   </energy>
  </scstep>
  <scstep>
   <time name="dav">    8.56    8.61</time>
   <time name="total">    8.85    8.92</time>
   <energy>
    <i name="e_fr_energy">   -125.48868112 </i>
    <i name="e_wo_entrp">   -125.48711393 </i>
    <i name="e_0_energy">   -125.48789753 </i>
   </energy>
  </scstep>
  <scstep>
   <time name="dav">    8.06    8.11</time>
   <time name="total">    8.35    8.41</time>
   <energy>
    <i name="e_fr_energy">   -125.48870735 </i>
    <i name="e_wo_entrp">   -125.48714015 </i>
    <i name="e_0_energy">   -125.48792375 </i>
   </energy>
  </scstep>
  <scstep>
   <time name="dav">    9.02    9.08</time>
   <time name="total">    9.31    9.38</time>
   <energy>
    <i name="e_fr_energy">   -125.48872730 </i>
    <i name="e_wo_entrp">   -125.48716011 </i>
    <i name="e_0_energy">   -125.48794370 </i>
   </energy>
  </scstep>
  <scstep>
   <time name="dav">    8.27    8.32</time>
   <time name="total">    8.56    8.62</time>
   <energy>
    <i name="e_fr_energy">   -125.48874447 </i>
    <i name="e_wo_entrp">   -125.48717727 </i>
    <i name="e_0_energy">   -125.48796087 </i>
   </energy>
  </scstep>
  <scstep>
   <time name="dav">    8.88    8.93</time>
   <time name="total">    9.17    9.24</time>
   <energy>
    <i name="e_fr_energy">   -125.48874818 </i>
    <i name="e_wo_entrp">   -125.48718099 </i>
    <i name="e_0_energy">   -125.48796459 </i>
   </energy>
  </scstep>
  <scstep>
   <time name="dav">    8.90    8.95</time>
   <time name="total">    9.19    9.25</time>
   <energy>
    <i name="e_fr_energy">   -125.48874920 </i>
    <i name="e_wo_entrp">   -125.48718201 </i>
    <i name="e_0_energy">   -125.48796560 </i>
   </energy>
  </scstep>
  <scstep>
   <time name="dav">    8.72    8.77</time>
   <time name="total">    8.76    8.81</time>
   <energy>
    <i name="alphaZ">     58.30706670 </i>
    <i name="ewald">   4687.72167433 </i>
    <i name="hartreedc">  -6445.84574385 </i>
    <i name="XCdc">    180.47820284 </i>
    <i name="pawpsdc">   5737.34222529 </i>
    <i name="pawaedc">  -5741.75372460 </i>
    <i name="eentropy">     -0.00156719 </i>
    <i name="bandstr">   -505.00030383 </i>
    <i name="atom">   1903.26342058 </i>
    <i name="e_fr_energy">   -125.48874974 </i>
    <i name="e_wo_entrp">   -125.48718255 </i>
    <i name="e_0_energy">   -125.48796615 </i>
   </energy>
  </scstep>
  <structure>
   <crystal>
    <varray name="basis" >
     <v>       4.19675911       2.42300000       0.00000000 </v>
     <v>      -4.19675911       2.42300000       0.00000000 </v>
     <v>       0.00000000       0.00000000      15.00000000 </v>
    </varray>
    <i name="volume">    305.06241947 </i>
    <varray name="rec_basis" >
     <v>       0.11913955       0.20635576       0.00000000 </v>
     <v>      -0.11913955       0.20635576       0.00000000 </v>
     <v>       0.00000000       0.00000000       0.06666667 </v>
    </varray>
   </crystal>
   <varray name="positions" >
    <v>       0.00415361       0.00267210       0.12034134 </v>
    <v>       0.35695335       0.00285503       0.09748893 </v>
    <v>       0.00423858       0.35550699       0.09749256 </v>
    <v>       0.65142295       0.65006557       0.09747688 </v>
    <v>       0.32808646       0.32671938       0.10030508 </v>
    <v>       0.68027775       0.00278085       0.10027562 </v>
    <v>       0.00416530       0.67883808       0.10026559 </v>
    <v>       0.16666600       0.33333300       0.33720000 </v>
    <v>       0.33333300       0.16666600       0.33720000 </v>
    <v>       0.16666600       0.83333300       0.33720000 </v>
    <v>       0.33333300       0.66666600       0.33720000 </v>
    <v>       0.66666600       0.33333300       0.33720000 </v>
    <v>       0.83333300       0.16666600       0.33720000 </v>
    <v>       0.66666600       0.83333300       0.33720000 </v>
    <v>       0.83333300       0.66666600       0.33720000 </v>
   </varray>
  </structure>
  <varray name="forces" >
   <v>      -0.00410918       0.00549523      -0.42427808 </v>
   <v>      -0.08794819      -0.05597763       0.11218728 </v>
   <v>       0.08755201      -0.05490295       0.11195280 </v>
   <v>       0.00273331       0.10228848       0.11455319 </v>
   <v>       0.00311047      -0.34053911       0.00505811 </v>
   <v>       0.29329461       0.17144334       0.00833940 </v>
   <v>      -0.29417151       0.17359199       0.00948837 </v>
   <v>      -0.01421754       0.00087157       0.01905124 </v>
   <v>       0.01401840       0.00103056       0.01937567 </v>
   <v>       0.00832469       0.01082535       0.01990855 </v>
   <v>      -0.00037341       0.00040715      -0.02678237 </v>
   <v>       0.00060609       0.00018613      -0.02678734 </v>
   <v>      -0.00834849       0.01057134       0.01987061 </v>
   <v>       0.00565503      -0.01254737       0.01917606 </v>
   <v>      -0.00612629      -0.01274408       0.01888650 </v>
  </varray>
  <varray name="stress" >
   <v>      -6.76602469       0.00984815      -0.01562878 </v>
   <v>       0.00984818      -6.75795656      -0.01584245 </v>
   <v>      -0.01562880      -0.01584246      -1.70650674 </v>
  </varray>
  <energy>
   <i name="e_fr_energy">   -127.07640393 </i>
   <i name="e_wo_entrp">   -127.07483674 </i>
   <i name="e_0_energy">   -127.07562034 </i>
  </energy>
  <time name="totalsc">  230.11  232.27</time>
 </calculation>
 <calculation>
  <scstep>
   <time name="dav">    5.47    5.50</time>
   <time name="total">    5.76    5.80</time>
   <energy>
    <i name="alphaZ">     58.30706670 </i>
    <i name="ewald">   4690.64313346 </i>
    <i name="hartreedc">  -6447.38998142 </i>
    <i name="XCdc">    180.55800694 </i>
    <i name="pawpsdc">   5737.34899714 </i>
    <i name="pawaedc">  -5741.76049828 </i>
    <i name="eentropy">     -0.00156719 </i>
    <i name="bandstr">   -506.46825216 </i>
    <i name="atom">   1903.26342058 </i>
    <i name="e_fr_energy">   -125.49967424 </i>
    <i name="e_wo_entrp">   -125.49810704 </i>
    <i name="e_0_energy">   -125.49889064 </i>
   </energy>
  </scstep>
  <scstep>
   <time name="dav">   10.75   10.82</time>
   <time name="total">   11.05   11.12</time>
   <energy>
    <i name="e_fr_energy">   -125.49167016 </i>
    <i name="e_wo_entrp">   -125.49010297 </i>
    <i name="e_0_energy">   -125.49088657 </i>
   </energy>
  </scstep>
  <scstep>
   <time name="dav">    8.08    8.12</time>
   <time name="total">    8.37    8.42</time>
   <energy>
    <i name="e_fr_energy">   -125.49079423 </i>
    <i name="e_wo_entrp">   -125.48922704 </i>
    <i name="e_0_energy">   -125.49001064 </i>
   </energy>
  </scstep>
  <scstep>
   <time name="dav">   11.36   11.43</time>
   <time name="total">   11.65   11.73</time>
   <energy>
    <i name="e_fr_energy">   -125.49076052 </i>
    <i name="e_wo_entrp">   -125.48919333 </i>
    <i name="e_0_energy">   -125.48997693 </i>
   </energy>
  </scstep>
  <scstep>
   <time name="dav">    9.85    9.91</time>
   <time name="total">   10.14   10.21</time>
   <energy>
    <i name="e_fr_energy">   -125.49076394 </i>
    <i name="e_wo_entrp">   -125.48919675 </i>
    <i name="e_0_energy">   -125.48998034 </i>
   </energy>
  </scstep>
  <scstep>
   <time name="dav">    8.95    9.00</time>
   <time name="total">    8.99    9.04</time>
   <energy>
    <i name="alphaZ">     58.30706670 </i>
    <i name="ewald">   4690.64313346 </i>
    <i name="hartreedc">  -6448.09108293 </i>
    <i name="XCdc">    180.57379352 </i>
    <i name="pawpsdc">   5763.50371202 </i>
    <i name="pawaedc">  -5767.92373182 </i>
    <i name="eentropy">     -0.00156719 </i>
    <i name="bandstr">   -505.76550846 </i>
    <i name="atom">   1903.26342058 </i>
    <i name="e_fr_energy">   -125.49076413 </i>
    <i name="e_wo_entrp">   -125.48919694 </i>
    <i name="e_0_energy">   -125.48998053 </i>
   </energy>
  </scstep>
  <structure>
   <crystal>
    <varray name="basis" >
     <v>       4.19675911       2.42300000       0.00000000 </v>
     <v>      -4.19675911       2.42300000       0.00000000 </v>
     <v>       0.00000000       0.00000000      15.00000000 </v>
    </varray>
    <i name="volume">    305.06241947 </i>
    <varray name="rec_basis" >
     <v>       0.11913955       0.20635576       0.00000000 </v>
     <v>      -0.11913955       0.20635576       0.00000000 </v>
     <v>       0.00000000       0.00000000       0.06666667 </v>
    </varray>
   </crystal>
   <varray name="positions" >
    <v>       0.00418470       0.00275043       0.11897678 </v>
    <v>       0.35589059       0.00280326       0.09784975 </v>
    <v>       0.00419522       0.35445721       0.09785262 </v>
    <v>       0.65245696       0.65106816       0.09784530 </v>
    <v>       0.32471422       0.32331138       0.10032135 </v>
    <v>       0.68367023       0.00280185       0.10030244 </v>
    <v>       0.00420265       0.68225699       0.10029610 </v>
    <v>       0.16659296       0.33342339       0.33726127 </v>
    <v>       0.33342383       0.16659569       0.33726232 </v>
    <v>       0.16682161       0.83339292       0.33726403 </v>
    <v>       0.33333491       0.66667220       0.33711386 </v>
    <v>       0.66667134       0.33333137       0.33711385 </v>
    <v>       0.83339026       0.16681922       0.33726391 </v>
    <v>       0.66657359       0.83317559       0.33726167 </v>
    <v>       0.83317092       0.66657434       0.33726074 </v>
   </varray>
  </structure>
  <varray name="forces" >
   <v>      -0.00149956      -0.00062404      -0.20093746 </v>
   <v>       0.23772959       0.13586477       0.06517125 </v>
   <v>      -0.23886777       0.13771799       0.06499972 </v>
   <v>       0.00126444      -0.26870507       0.06682025 </v>
   <v>       0.00039447       0.55478130      -0.02096372 </v>
   <v>      -0.47860735      -0.27874839      -0.01865784 </v>
   <v>       0.48005521      -0.27892199      -0.01822585 </v>
   <v>       0.05402784      -0.00268677       0.01012184 </v>
   <v>      -0.05390900      -0.00318443       0.01020798 </v>
   <v>      -0.03096431      -0.04356057       0.01030009 </v>
   <v>       0.00125368      -0.00209115       0.00040898 </v>
   <v>      -0.00250892      -0.00133989       0.00041203 </v>
   <v>       0.03054958      -0.04264790       0.01025859 </v>
   <v>      -0.02359785       0.04674437       0.01006484 </v>
   <v>       0.02467995       0.04740178       0.01001931 </v>
  </varray>
  <varray name="stress" >
   <v>      -4.18139194       0.00162591      -0.01115208 </v>
   <v>       0.00162594      -4.19811746      -0.02551989 </v>
   <v>      -0.01115209      -0.02551993      -1.32219038 </v>
  </varray>
  <energy>
   <i name="e_fr_energy">   -127.07772192 </i>
   <i name="e_wo_entrp">   -127.07615472 </i>
   <i name="e_0_energy">   -127.07693832 </i>
  </energy>
  <time name="totalsc">   60.65   61.07</time>
 </calculation>
 <calculation>
  <scstep>
   <time name="dav">    5.48    5.52</time>
   <time name="total">    5.77    5.81</time>
   <energy>
    <i name="alphaZ">     58.30706670 </i>
    <i name="ewald">   4689.22144271 </i>
    <i name="hartreedc">  -6447.33137734 </i>
    <i name="XCdc">    180.53477868 </i>
    <i name="pawpsdc">   5763.52020915 </i>
    <i name="pawaedc">  -5767.94020058 </i>
    <i name="eentropy">     -0.00156719 </i>
    <i name="bandstr">   -505.07253895 </i>
    <i name="atom">   1903.26342058 </i>
    <i name="e_fr_energy">   -125.49876626 </i>
    <i name="e_wo_entrp">   -125.49719907 </i>
    <i name="e_0_energy">   -125.49798266 </i>
   </energy>
  </scstep>
  <scstep>
   <time name="dav">   10.46   10.51</time>
   <time name="total">   10.75   10.82</time>
   <energy>
    <i name="e_fr_energy">   -125.49692085 </i>
    <i name="e_wo_entrp">   -125.49535366 </i>
    <i name="e_0_energy">   -125.49613726 </i>
   </energy>
  </scstep>
  <scstep>
   <time name="dav">    8.77    8.82</time>
   <time name="total">    9.06    9.13</time>
   <energy>
    <i name="e_fr_energy">   -125.49672861 </i>
    <i name="e_wo_entrp">   -125.49516141 </i>
    <i name="e_0_energy">   -125.49594501 </i>
   </energy>
  </scstep>
  <scstep>
   <time name="dav">    9.67    9.72</time>
   <time name="total">    9.96   10.02</time>
   <energy>
    <i name="e_fr_energy">   -125.49672165 </i>
    <i name="e_wo_entrp">   -125.49515445 </i>
    <i name="e_0_energy">   -125.49593805 </i>
   </energy>
  </scstep>
  <scstep>
   <time name="dav">    7.95    8.00</time>
   <time name="total">    7.99    8.03</time>
   <energy>
    <i name="alphaZ">     58.30706670 </i>
    <i name="ewald">   4689.22144271 </i>
    <i name="hartreedc">  -6447.01819204 </i>
    <i name="XCdc">    180.52734128 </i>
    <i name="pawpsdc">   5750.56541803 </i>
    <i name="pawaedc">  -5754.98110004 </i>
    <i name="eentropy">     -0.00156719 </i>
    <i name="bandstr">   -505.38055237 </i>
    <i name="atom">   1903.26342058 </i>
    <i name="e_fr_energy">   -125.49672234 </i>
    <i name="e_wo_entrp">   -125.49515515 </i>
    <i name="e_0_energy">   -125.49593874 </i>
   </energy>
  </scstep>
  <structure>
   <crystal>
    <varray name="basis" >
     <v>       4.19675911       2.42300000       0.00000000 </v>
     <v>      -4.19675911       2.42300000       0.00000000 </v>
     <v>       0.00000000       0.00000000      15.00000000 </v>
    </varray>
    <i name="volume">    305.06241947 </i>
    <varray name="rec_basis" >
     <v>       0.11913955       0.20635576       0.00000000 </v>
     <v>      -0.11913955       0.20635576       0.00000000 </v>
     <v>       0.00000000       0.00000000       0.06666667 </v>
    </varray>
   </crystal>
   <varray name="positions" >
    <v>       0.00416991       0.00271317       0.11962586 </v>
    <v>       0.35639611       0.00282788       0.09767812 </v>
    <v>       0.00421585       0.35495656       0.09768135 </v>
    <v>       0.65196512       0.65059126       0.09767005 </v>
    <v>       0.32631829       0.32493246       0.10031361 </v>
    <v>       0.68205653       0.00279186       0.10028968 </v>
    <v>       0.00418489       0.68063072       0.10028159 </v>
    <v>       0.16662770       0.33338040       0.33723213 </v>
    <v>       0.33338063       0.16662913       0.33723267 </v>
    <v>       0.16674759       0.83336442       0.33723357 </v>
    <v>       0.33333400       0.66666925       0.33715484 </v>
    <v>       0.66666880       0.33333215       0.33715483 </v>
    <v>       0.83336302       0.16674634       0.33723351 </v>
    <v>       0.66661755       0.83325046       0.33723234 </v>
    <v>       0.83324802       0.66661794       0.33723185 </v>
   </varray>
  </structure>
  <varray name="forces" >
   <v>      -0.00283979       0.00246368      -0.30582130 </v>
   <v>       0.08572480       0.04620995       0.08734847 </v>
   <v>      -0.08655635       0.04769423       0.08714752 </v>
   <v>       0.00197964      -0.09561470       0.08934362 </v>
   <v>       0.00173200       0.12688070      -0.00876780 </v>
   <v>      -0.10985332      -0.06355394      -0.00602633 </v>
   <v>       0.11028260      -0.06268277      -0.00527917 </v>
   <v>       0.02147681      -0.00107780       0.01436250 </v>
   <v>      -0.02150930      -0.00126293       0.01456356 </v>
   <v>      -0.01229684      -0.01757289       0.01486455 </v>
   <v>       0.00047483      -0.00090275      -0.01258884 </v>
   <v>      -0.00102270      -0.00061578      -0.01258959 </v>
   <v>       0.01206500      -0.01721461       0.01482422 </v>
   <v>      -0.00956838       0.01849784       0.01439021 </v>
   <v>       0.00991098       0.01875178       0.01422838 </v>
  </varray>
  <varray name="stress" >
   <v>      -5.52537866       0.00536310      -0.01338886 </v>
   <v>       0.00536310      -5.53226249      -0.02052314 </v>
   <v>      -0.01338883      -0.02052314      -1.48455971 </v>
  </varray>
  <energy>
   <i name="e_fr_energy">   -127.08400711 </i>
   <i name="e_wo_entrp">   -127.08243991 </i>
   <i name="e_0_energy">   -127.08322351 </i>
  </energy>
  <time name="totalsc">   48.21   48.54</time>
 </calculation>
 <calculation>
  <scstep>
   <time name="dav">    5.49    5.52</time>
   <time name="total">    5.78    5.83</time>
   <energy>
    <i name="alphaZ">     58.30706670 </i>
    <i name="ewald">   4688.70596103 </i>
    <i name="hartreedc">  -6446.22708587 </i>
    <i name="XCdc">    180.54717529 </i>
    <i name="pawpsdc">   5750.52999668 </i>
    <i name="pawaedc">  -5754.94568529 </i>
    <i name="eentropy">     -0.00156719 </i>
    <i name="bandstr">   -505.68386011 </i>
    <i name="atom">   1903.26342058 </i>
    <i name="e_fr_energy">   -125.50457818 </i>
    <i name="e_wo_entrp">   -125.50301099 </i>
    <i name="e_0_energy">   -125.50379459 </i>
   </energy>
  </scstep>
  <scstep>
   <time name="dav">   11.78   11.84</time>
   <time name="total">   12.06   12.14</time>
   <energy>
    <i name="e_fr_energy">   -125.50466376 </i>
    <i name="e_wo_entrp">   -125.50309657 </i>
    <i name="e_0_energy">   -125.50388016 </i>
   </energy>
  </scstep>
  <scstep>
   <time name="dav">    8.60    8.65</time>
   <time name="total">    8.89    8.96</time>
   <energy>
    <i name="e_fr_energy">   -125.50465963 </i>
    <i name="e_wo_entrp">   -125.50309243 </i>
    <i name="e_0_energy">   -125.50387603 </i>
   </energy>
  </scstep>
  <scstep>
   <time name="dav">   10.94   11.01</time>
   <time name="total">   11.23   11.31</time>
   <energy>
    <i name="e_fr_energy">   -125.50466123 </i>
    <i name="e_wo_entrp">   -125.50309404 </i>
    <i name="e_0_energy">   -125.50387763 </i>
   </energy>
  </scstep>
  <scstep>
   <time name="dav">    8.89    8.94</time>
   <time name="total">    8.93    8.98</time>
   <energy>
    <i name="alphaZ">     58.30706670 </i>
    <i name="ewald">   4688.70596103 </i>
    <i name="hartreedc">  -6446.21192450 </i>
    <i name="XCdc">    180.54601869 </i>
    <i name="pawpsdc">   5756.30738622 </i>
    <i name="pawaedc">  -5760.72507483 </i>
    <i name="eentropy">     -0.00156719 </i>
    <i name="bandstr">   -505.69594824 </i>
    <i name="atom">   1903.26342058 </i>
    <i name="e_fr_energy">   -125.50466154 </i>
    <i name="e_wo_entrp">   -125.50309435 </i>
    <i name="e_0_energy">   -125.50387795 </i>
   </energy>
  </scstep>
  <structure>
   <crystal>
    <varray name="basis" >
     <v>       4.19675911       2.42300000       0.00000000 </v>
     <v>      -4.19675911       2.42300000       0.00000000 </v>
     <v>       0.00000000       0.00000000      15.00000000 </v>
    </varray>
    <i name="volume">    305.06241947 </i>
    <varray name="rec_basis" >
     <v>       0.11913955       0.20635576       0.00000000 </v>
     <v>      -0.11913955       0.20635576       0.00000000 </v>
     <v>       0.00000000       0.00000000       0.06666667 </v>
    </varray>
   </crystal>
   <varray name="positions" >
    <v>       0.00418654       0.00277334       0.11833150 </v>
    <v>       0.35694329       0.00278297       0.09803924 </v>
    <v>       0.00418247       0.35552528       0.09804167 </v>
    <v>       0.65142051       0.65001675       0.09803924 </v>
    <v>       0.32647097       0.32505652       0.10029291 </v>
    <v>       0.68191799       0.00279692       0.10028009 </v>
    <v>       0.00420486       0.68050563       0.10027527 </v>
    <v>       0.16670805       0.33328578       0.33729208 </v>
    <v>       0.33328430       0.16670879       0.33729352 </v>
    <v>       0.16657146       0.83328783       0.33729581 </v>
    <v>       0.33332890       0.66666049       0.33709268 </v>
    <v>       0.66665951       0.33333143       0.33709266 </v>
    <v>       0.83328766       0.16657393       0.33729559 </v>
    <v>       0.66670703       0.83342021       0.33729249 </v>
    <v>       0.83342045       0.66670815       0.33729126 </v>
   </varray>
  </structure>
  <varray name="forces" >
   <v>       0.00003017      -0.00043635      -0.27528826 </v>
   <v>       0.05190868       0.03008040       0.05061872 </v>
   <v>      -0.05187821       0.03118366       0.05054841 </v>
   <v>       0.00061838      -0.05795931       0.05146961 </v>
   <v>      -0.00041280       0.11610982       0.02050170 </v>
   <v>      -0.09878640      -0.05891500       0.02216466 </v>
   <v>       0.09894585      -0.05875941       0.02249048 </v>
   <v>      -0.05068924      -0.00203531       0.00627182 </v>
   <v>       0.05051957      -0.00179207       0.00627573 </v>
   <v>       0.02561884       0.04369414       0.00622997 </v>
   <v>      -0.00160523       0.00114639       0.01005330 </v>
   <v>       0.00223992       0.00057906       0.01005754 </v>
   <v>      -0.02555462       0.04290258       0.00620031 </v>
   <v>       0.02647098      -0.04266555       0.00618967 </v>
   <v>      -0.02742590      -0.04313305       0.00621633 </v>
  </varray>
  <varray name="stress" >
   <v>      -5.08942933       0.00155596      -0.00830965 </v>
   <v>       0.00155593      -5.08515879      -0.02450865 </v>
   <v>      -0.00830961      -0.02450867      -1.49292223 </v>
  </varray>
  <energy>
   <i name="e_fr_energy">   -127.09166003 </i>
   <i name="e_wo_entrp">   -127.09009284 </i>
   <i name="e_0_energy">   -127.09087644 </i>
  </energy>
  <time name="totalsc">   51.69   52.03</time>
 </calculation>
 <calculation>
  <scstep>
   <time name="dav">    5.48    5.51</time>
   <time name="total">    5.77    5.82</time>
   <energy>
    <i name="alphaZ">     58.30706670 </i>
    <i name="ewald">   4686.51971180 </i>
    <i name="hartreedc">  -6443.34859323 </i>
    <i name="XCdc">    180.59496587 </i>
    <i name="pawpsdc">   5756.35849694 </i>
    <i name="pawaedc">  -5760.77620873 </i>
    <i name="eentropy">     -0.00156714 </i>
    <i name="bandstr">   -506.43378529 </i>
    <i name="atom">   1903.26342058 </i>
    <i name="e_fr_energy">   -125.51649250 </i>
    <i name="e_wo_entrp">   -125.51492536 </i>
    <i name="e_0_energy">   -125.51570893 </i>
   </energy>
  </scstep>
  <scstep>
   <time name="dav">   11.42   11.48</time>
   <time name="total">   11.71   11.78</time>
   <energy>
    <i name="e_fr_energy">   -125.51744034 </i>
    <i name="e_wo_entrp">   -125.51587319 </i>
    <i name="e_0_energy">   -125.51665677 </i>
   </energy>
  </scstep>
  <scstep>
   <time name="dav">    8.47    8.53</time>
   <time name="total">    8.76    8.84</time>
   <energy>
    <i name="e_fr_energy">   -125.51738863 </i>
    <i name="e_wo_entrp">   -125.51582148 </i>
    <i name="e_0_energy">   -125.51660505 </i>
   </energy>
  </scstep>
  <scstep>
   <time name="dav">   11.60   11.67</time>
   <time name="total">   11.89   11.97</time>
   <energy>
    <i name="e_fr_energy">   -125.51740586 </i>
    <i name="e_wo_entrp">   -125.51583872 </i>
    <i name="e_0_energy">   -125.51662229 </i>
   </energy>
  </scstep>
  <scstep>
   <time name="dav">    8.58    8.63</time>
   <time name="total">    8.86    8.92</time>
   <energy>
    <i name="e_fr_energy">   -125.51740890 </i>
    <i name="e_wo_entrp">   -125.51584175 </i>
    <i name="e_0_energy">   -125.51662532 </i>
   </energy>
  </scstep>
  <scstep>
   <time name="dav">   10.22   10.27</time>
   <time name="total">   10.25   10.31</time>
   <energy>
    <i name="alphaZ">     58.30706670 </i>
    <i name="ewald">   4686.51971180 </i>
    <i name="hartreedc">  -6443.29502295 </i>
    <i name="XCdc">    180.59133583 </i>
    <i name="pawpsdc">   5770.68889138 </i>
    <i name="pawaedc">  -5775.11174339 </i>
    <i name="eentropy">     -0.00156715 </i>
    <i name="bandstr">   -506.47950191 </i>
    <i name="atom">   1903.26342058 </i>
    <i name="e_fr_energy">   -125.51740910 </i>
    <i name="e_wo_entrp">   -125.51584196 </i>
    <i name="e_0_energy">   -125.51662553 </i>
   </energy>
  </scstep>
  <structure>
   <crystal>
    <varray name="basis" >
     <v>       4.19675911       2.42300000       0.00000000 </v>
     <v>      -4.19675911       2.42300000       0.00000000 </v>
     <v>       0.00000000       0.00000000      15.00000000 </v>
    </varray>
    <i name="volume">    305.06241947 </i>
    <varray name="rec_basis" >
     <v>       0.11913955       0.20635576       0.00000000 </v>
     <v>      -0.11913955       0.20635576       0.00000000 </v>
     <v>       0.00000000       0.00000000       0.06666667 </v>
    </varray>
   </crystal>
   <varray name="positions" >
    <v>       0.00423645       0.00295386       0.11444843 </v>
    <v>       0.35858483       0.00264821       0.09912260 </v>
    <v>       0.00408234       0.35723144       0.09912261 </v>
    <v>       0.64978669       0.64829323       0.09914678 </v>
    <v>       0.32692900       0.32542872       0.10023083 </v>
    <v>       0.68150236       0.00281207       0.10025132 </v>
    <v>       0.00426479       0.68013034       0.10025630 </v>
    <v>       0.16694908       0.33300192       0.33747194 </v>
    <v>       0.33299532       0.16694775       0.33747607 </v>
    <v>       0.16604304       0.83305807       0.33748250 </v>
    <v>       0.33331361       0.66663419       0.33690619 </v>
    <v>       0.66663166       0.33332930       0.33690616 </v>
    <v>       0.83306160       0.16605668       0.33748182 </v>
    <v>       0.66697548       0.83392945       0.33747295 </v>
    <v>       0.83393775       0.66697879       0.33746948 </v>
   </varray>
  </structure>
  <varray name="forces" >
   <v>       0.00914036      -0.00993668      -0.21719131 </v>
   <v>      -0.07181139      -0.03179898      -0.04888782 </v>
   <v>       0.07361666      -0.03167739      -0.04851764 </v>
   <v>      -0.00325112       0.08062058      -0.05134474 </v>
   <v>      -0.00621175       0.06334850       0.10826791 </v>
   <v>      -0.04692064      -0.03396142       0.10684484 </v>
   <v>       0.04580178      -0.03552089       0.10608076 </v>
   <v>      -0.26941572      -0.00322679      -0.01785865 </v>
   <v>       0.26880595      -0.00168728      -0.01843361 </v>
   <v>       0.14181736       0.22848881      -0.01954392 </v>
   <v>      -0.00781131       0.00726442       0.07803805 </v>
   <v>       0.01196619       0.00413720       0.07805802 </v>
   <v>      -0.14080774       0.22415828      -0.01955278 </v>
   <v>       0.13410375      -0.22873282      -0.01827641 </v>
   <v>      -0.13902237      -0.23147555      -0.01768270 </v>
  </varray>
  <varray name="stress" >
   <v>      -3.88990846      -0.00706439       0.00340090 </v>
   <v>      -0.00706438      -3.86640897      -0.03179932 </v>
   <v>       0.00340090      -0.03179932      -1.56171752 </v>
  </varray>
  <energy>
   <i name="e_fr_energy">   -127.10355964 </i>
   <i name="e_wo_entrp">   -127.10199249 </i>
   <i name="e_0_energy">   -127.10277606 </i>
  </energy>
  <time name="totalsc">   61.93   62.37</time>
 </calculation>
 <calculation>
  <scstep>
   <time name="dav">    5.57    5.60</time>
   <time name="total">    5.86    5.90</time>
   <energy>
    <i name="alphaZ">     58.30706670 </i>
    <i name="ewald">   4686.21540215 </i>
    <i name="hartreedc">  -6442.89681097 </i>
    <i name="XCdc">    180.59740729 </i>
    <i name="pawpsdc">   5770.68958856 </i>
    <i name="pawaedc">  -5775.11244003 </i>
    <i name="eentropy">     -0.00156719 </i>
    <i name="bandstr">   -506.58323098 </i>
    <i name="atom">   1903.26342058 </i>
    <i name="e_fr_energy">   -125.52116389 </i>
    <i name="e_wo_entrp">   -125.51959671 </i>
    <i name="e_0_energy">   -125.52038030 </i>
   </energy>
  </scstep>
  <scstep>
   <time name="dav">   10.99   11.06</time>
   <time name="total">   11.28   11.36</time>
   <energy>
    <i name="e_fr_energy">   -125.52115098 </i>
    <i name="e_wo_entrp">   -125.51958379 </i>
    <i name="e_0_energy">   -125.52036739 </i>
   </energy>
  </scstep>
  <scstep>
   <time name="dav">    8.31    8.36</time>
   <time name="total">    8.60    8.66</time>
   <energy>
    <i name="e_fr_energy">   -125.52112203 </i>
    <i name="e_wo_entrp">   -125.51955484 </i>
    <i name="e_0_energy">   -125.52033843 </i>
   </energy>
  </scstep>
  <scstep>
   <time name="dav">   10.96   11.02</time>
   <time name="total">   11.25   11.32</time>
   <energy>
    <i name="e_fr_energy">   -125.52112312 </i>
    <i name="e_wo_entrp">   -125.51955593 </i>
    <i name="e_0_energy">   -125.52033952 </i>
   </energy>
  </scstep>
  <scstep>
   <time name="dav">    8.83    8.88</time>
   <time name="total">    8.86    8.92</time>
   <energy>
    <i name="alphaZ">     58.30706670 </i>
    <i name="ewald">   4686.21540215 </i>
    <i name="hartreedc">  -6442.90655498 </i>
    <i name="XCdc">    180.59657015 </i>
    <i name="pawpsdc">   5772.36478511 </i>
    <i name="pawaedc">  -5776.78829712 </i>
    <i name="eentropy">     -0.00156719 </i>
    <i name="bandstr">   -506.57194898 </i>
    <i name="atom">   1903.26342058 </i>
    <i name="e_fr_energy">   -125.52112359 </i>
    <i name="e_wo_entrp">   -125.51955640 </i>
    <i name="e_0_energy">   -125.52033999 </i>
   </energy>
  </scstep>
  <structure>
   <crystal>
    <varray name="basis" >
     <v>       4.19675911       2.42300000       0.00000000 </v>
     <v>      -4.19675911       2.42300000       0.00000000 </v>
     <v>       0.00000000       0.00000000      15.00000000 </v>
    </varray>
    <i name="volume">    305.06241947 </i>
    <varray name="rec_basis" >
     <v>       0.11913955       0.20635576       0.00000000 </v>
     <v>      -0.11913955       0.20635576       0.00000000 </v>
     <v>       0.00000000       0.00000000       0.06666667 </v>
    </varray>
   </crystal>
   <varray name="positions" >
    <v>       0.00423711       0.00295848       0.11380724 </v>
    <v>       0.35871559       0.00264245       0.09925328 </v>
    <v>       0.00408303       0.35737002       0.09925310 </v>
    <v>       0.64966449       0.64816354       0.09927978 </v>
    <v>       0.32707481       0.32557225       0.10026978 </v>
    <v>       0.68136075       0.00280483       0.10029433 </v>
    <v>       0.00426084       0.67999315       0.10030036 </v>
    <v>       0.16676651       0.33316967       0.33748935 </v>
    <v>       0.33316397       0.16676747       0.33749360 </v>
    <v>       0.16639187       0.83322563       0.33750013 </v>
    <v>       0.33331522       0.66664655       0.33691436 </v>
    <v>       0.66664280       0.33332522       0.33691433 </v>
    <v>       0.83322457       0.16640039       0.33749938 </v>
    <v>       0.66680695       0.83358367       0.33749026 </v>
    <v>       0.83358549       0.66681069       0.33748673 </v>
   </varray>
  </structure>
  <varray name="forces" >
   <v>       0.00913059      -0.00926747      -0.20413025 </v>
   <v>      -0.07742010      -0.03448835      -0.05185477 </v>
   <v>       0.07948777      -0.03502845      -0.05143233 </v>
   <v>      -0.00375163       0.08571157      -0.05461708 </v>
   <v>      -0.00631632       0.04149137       0.10798725 </v>
   <v>      -0.02918465      -0.02269921       0.10615148 </v>
   <v>       0.02840598      -0.02467578       0.10528846 </v>
   <v>      -0.12183709       0.00424544      -0.01879170 </v>
   <v>       0.12136149       0.00523715      -0.01939118 </v>
   <v>       0.06851060       0.09886875      -0.02049868 </v>
   <v>      -0.00311886       0.00385154       0.07977185 </v>
   <v>       0.00534764       0.00218235       0.07979100 </v>
   <v>      -0.06802381       0.09688485      -0.02049935 </v>
   <v>       0.05434293      -0.10550715      -0.01919200 </v>
   <v>      -0.05693454      -0.10680663      -0.01858269 </v>
  </varray>
  <varray name="stress" >
   <v>      -3.74680971      -0.00892370       0.00306196 </v>
   <v>      -0.00892366      -3.75451531      -0.02979650 </v>
   <v>       0.00306199      -0.02979650      -1.56500164 </v>
  </varray>
  <energy>
   <i name="e_fr_energy">   -127.10711766 </i>
   <i name="e_wo_entrp">   -127.10555048 </i>
   <i name="e_0_energy">   -127.10633407 </i>
  </energy>
  <time name="totalsc">   50.56   50.90</time>
 </calculation>
 <calculation>
  <scstep>
   <time name="dav">    5.55    5.59</time>
   <time name="total">    5.84    5.89</time>
   <energy>
    <i name="alphaZ">     58.30706670 </i>
    <i name="ewald">   4685.59455709 </i>
    <i name="hartreedc">  -6442.12397264 </i>
    <i name="XCdc">    180.60724104 </i>
    <i name="pawpsdc">   5772.50960725 </i>
    <i name="pawaedc">  -5776.93312621 </i>
    <i name="eentropy">     -0.00156714 </i>
    <i name="bandstr">   -506.74749182 </i>
    <i name="atom">   1903.26342058 </i>
    <i name="e_fr_energy">   -125.52426518 </i>
    <i name="e_wo_entrp">   -125.52269803 </i>
    <i name="e_0_energy">   -125.52348160 </i>
   </energy>
  </scstep>
  <scstep>
   <time name="dav">   11.09   11.16</time>
   <time name="total">   11.38   11.46</time>
   <energy>
    <i name="e_fr_energy">   -125.52422051 </i>
    <i name="e_wo_entrp">   -125.52265336 </i>
    <i name="e_0_energy">   -125.52343694 </i>
   </energy>
  </scstep>
  <scstep>
   <time name="dav">    8.75    8.80</time>
   <time name="total">    9.04    9.10</time>
   <energy>
    <i name="e_fr_energy">   -125.52411961 </i>
    <i name="e_wo_entrp">   -125.52255246 </i>
    <i name="e_0_energy">   -125.52333603 </i>
   </energy>
  </scstep>
  <scstep>
   <time name="dav">   10.49   10.55</time>
   <time name="total">   10.78   10.85</time>
   <energy>
    <i name="e_fr_energy">   -125.52412364 </i>
    <i name="e_wo_entrp">   -125.52255649 </i>
    <i name="e_0_energy">   -125.52334006 </i>
   </energy>
  </scstep>
  <scstep>
   <time name="dav">    8.64    8.69</time>
   <time name="total">    8.67    8.73</time>
   <energy>
    <i name="alphaZ">     58.30706670 </i>
    <i name="ewald">   4685.59455709 </i>
    <i name="hartreedc">  -6442.17632318 </i>
    <i name="XCdc">    180.60632649 </i>
    <i name="pawpsdc">   5775.68659685 </i>
    <i name="pawaedc">  -5780.11138643 </i>
    <i name="eentropy">     -0.00156716 </i>
    <i name="bandstr">   -506.69281527 </i>
    <i name="atom">   1903.26342058 </i>
    <i name="e_fr_energy">   -125.52412433 </i>
    <i name="e_wo_entrp">   -125.52255718 </i>
    <i name="e_0_energy">   -125.52334076 </i>
   </energy>
  </scstep>
  <structure>
   <crystal>
    <varray name="basis" >
     <v>       4.19675911       2.42300000       0.00000000 </v>
     <v>      -4.19675911       2.42300000       0.00000000 </v>
     <v>       0.00000000       0.00000000      15.00000000 </v>
    </varray>
    <i name="volume">    305.06241947 </i>
    <varray name="rec_basis" >
     <v>       0.11913955       0.20635576       0.00000000 </v>
     <v>      -0.11913955       0.20635576       0.00000000 </v>
     <v>       0.00000000       0.00000000       0.06666667 </v>
    </varray>
   </crystal>
   <varray name="positions" >
    <v>       0.00423835       0.00296715       0.11260444 </v>
    <v>       0.35896089       0.00263164       0.09949841 </v>
    <v>       0.00408432       0.35763000       0.09949790 </v>
    <v>       0.64943525       0.64792026       0.09952925 </v>
    <v>       0.32734834       0.32584150       0.10034286 </v>
    <v>       0.68109510       0.00279125       0.10037502 </v>
    <v>       0.00425342       0.67973579       0.10038299 </v>
    <v>       0.16642405       0.33348435       0.33752200 </v>
    <v>       0.33348034       0.16642929       0.33752648 </v>
    <v>       0.16704623       0.83353997       0.33753318 </v>
    <v>       0.33331823       0.66666973       0.33692968 </v>
    <v>       0.66666371       0.33331757       0.33692966 </v>
    <v>       0.83353030       0.16704513       0.33753231 </v>
    <v>       0.66649079       0.83293502       0.33752272 </v>
    <v>       0.83292469       0.66649536       0.33751909 </v>
   </varray>
  </structure>
  <varray name="forces" >
   <v>       0.00909312      -0.00797610      -0.18259353 </v>
   <v>      -0.09038838      -0.04092220      -0.05684619 </v>
   <v>       0.09293097      -0.04272220      -0.05633259 </v>
   <v>      -0.00467719       0.09803560      -0.06016132 </v>
   <v>      -0.00647542      -0.00187758       0.10778588 </v>
   <v>       0.00615437      -0.00038160       0.10520274 </v>
   <v>      -0.00630180      -0.00316166       0.10415861 </v>
   <v>       0.14999332       0.01915025      -0.02052403 </v>
   <v>      -0.15023538       0.01911328      -0.02116986 </v>
   <v>      -0.06586940      -0.14038039      -0.02227240 </v>
   <v>       0.00577968      -0.00260431       0.08305636 </v>
   <v>      -0.00718224      -0.00151319       0.08307332 </v>
   <v>       0.06548176      -0.13810080      -0.02225038 </v>
   <v>      -0.09370311       0.12105446      -0.02088068 </v>
   <v>       0.09539970       0.12228644      -0.02024592 </v>
  </varray>
  <varray name="stress" >
   <v>      -3.43978724      -0.01182944       0.00240519 </v>
   <v>      -0.01182943      -3.50810449      -0.02621141 </v>
   <v>       0.00240518      -0.02621142      -1.59371057 </v>
  </varray>
  <energy>
   <i name="e_fr_energy">   -127.10980924 </i>
   <i name="e_wo_entrp">   -127.10824209 </i>
   <i name="e_0_energy">   -127.10902566 </i>
  </energy>
  <time name="totalsc">   50.40   50.75</time>
 </calculation>
 <calculation>
  <scstep>
   <time name="dav">    5.49    5.53</time>
   <time name="total">    5.78    5.83</time>
   <energy>
    <i name="alphaZ">     58.30706670 </i>
    <i name="ewald">   4685.46495616 </i>
    <i name="hartreedc">  -6441.93069068 </i>
    <i name="XCdc">    180.61393786 </i>
    <i name="pawpsdc">   5775.96009751 </i>
    <i name="pawaedc">  -5780.38489229 </i>
    <i name="eentropy">     -0.00156718 </i>
    <i name="bandstr">   -506.81893386 </i>
    <i name="atom">   1903.26342058 </i>
    <i name="e_fr_energy">   -125.52660520 </i>
    <i name="e_wo_entrp">   -125.52503803 </i>
    <i name="e_0_energy">   -125.52582161 </i>
   </energy>
  </scstep>
  <scstep>
   <time name="dav">   10.30   10.36</time>
   <time name="total">   10.59   10.66</time>
   <energy>
    <i name="e_fr_energy">   -125.52663239 </i>
    <i name="e_wo_entrp">   -125.52506521 </i>
    <i name="e_0_energy">   -125.52584880 </i>
   </energy>
  </scstep>
  <scstep>
   <time name="dav">    7.86    7.90</time>
   <time name="total">    8.15    8.21</time>
   <energy>
    <i name="e_fr_energy">   -125.52663040 </i>
    <i name="e_wo_entrp">   -125.52506322 </i>
    <i name="e_0_energy">   -125.52584681 </i>
   </energy>
  </scstep>
  <scstep>
   <time name="dav">   10.45   10.51</time>
   <time name="total">   10.49   10.54</time>
   <energy>
    <i name="alphaZ">     58.30706670 </i>
    <i name="ewald">   4685.46495616 </i>
    <i name="hartreedc">  -6442.01704942 </i>
    <i name="XCdc">    180.61315972 </i>
    <i name="pawpsdc">   5778.50327161 </i>
    <i name="pawaedc">  -5782.92893104 </i>
    <i name="eentropy">     -0.00156718 </i>
    <i name="bandstr">   -506.73095756 </i>
    <i name="atom">   1903.26342058 </i>
    <i name="e_fr_energy">   -125.52663044 </i>
    <i name="e_wo_entrp">   -125.52506326 </i>
    <i name="e_0_energy">   -125.52584685 </i>
   </energy>
  </scstep>
  <structure>
   <crystal>
    <varray name="basis" >
     <v>       4.19675911       2.42300000       0.00000000 </v>
     <v>      -4.19675911       2.42300000       0.00000000 </v>
     <v>       0.00000000       0.00000000      15.00000000 </v>
    </varray>
    <i name="volume">    305.06241947 </i>
    <varray name="rec_basis" >
     <v>       0.11913955       0.20635576       0.00000000 </v>
     <v>      -0.11913955       0.20635576       0.00000000 </v>
     <v>       0.00000000       0.00000000       0.06666667 </v>
    </varray>
   </crystal>
   <varray name="positions" >
    <v>       0.00423386       0.00294673       0.11188758 </v>
    <v>       0.35891000       0.00264730       0.09958755 </v>
    <v>       0.00410546       0.35758038       0.09958718 </v>
    <v>       0.64949841       0.64798646       0.09961857 </v>
    <v>       0.32747568       0.32598070       0.10044497 </v>
    <v>       0.68096714       0.00277703       0.10047940 </v>
    <v>       0.00423694       0.67960696       0.10048772 </v>
    <v>       0.16644965       0.33351653       0.33752603 </v>
    <v>       0.33351304       0.16645725       0.33753023 </v>
    <v>       0.16704163       0.83350656       0.33753636 </v>
    <v>       0.33332112       0.66667027       0.33698770 </v>
    <v>       0.66666364       0.33331865       0.33698770 </v>
    <v>       0.83349640       0.16704037       0.33753543 </v>
    <v>       0.66645694       0.83293639       0.33752644 </v>
    <v>       0.83292408       0.66646240       0.33752314 </v>
   </varray>
  </structure>
  <varray name="forces" >
   <v>       0.00752168      -0.00569757      -0.15969008 </v>
   <v>      -0.06824109      -0.02897808      -0.04537044 </v>
   <v>       0.07085559      -0.03173046      -0.04487152 </v>
   <v>      -0.00483219       0.07158233      -0.04868355 </v>
   <v>      -0.00553253      -0.01080465       0.08937034 </v>
   <v>       0.01096739       0.00488315       0.08651204 </v>
   <v>      -0.01039533       0.00172299       0.08544863 </v>
   <v>       0.15125830       0.00416496      -0.01773082 </v>
   <v>      -0.15119551       0.00344803      -0.01830750 </v>
   <v>      -0.07751930      -0.13051921      -0.01926941 </v>
   <v>       0.00437762      -0.00388814       0.07362413 </v>
   <v>      -0.00656915      -0.00218809       0.07363564 </v>
   <v>       0.07690460      -0.12815820      -0.01923444 </v>
   <v>      -0.07788621       0.12738908      -0.01799284 </v>
   <v>       0.08028614       0.12877388      -0.01744018 </v>
  </varray>
  <varray name="stress" >
   <v>      -3.27700579      -0.01043716       0.00064670 </v>
   <v>      -0.01043715      -3.32788821      -0.02288452 </v>
   <v>       0.00064670      -0.02288452      -1.57549047 </v>
  </varray>
  <energy>
   <i name="e_fr_energy">   -127.11208969 </i>
   <i name="e_wo_entrp">   -127.11052252 </i>
   <i name="e_0_energy">   -127.11130610 </i>
  </energy>
  <time name="totalsc">   39.70   39.96</time>
 </calculation>
 <calculation>
  <scstep>
   <time name="dav">    5.49    5.53</time>
   <time name="total">    5.78    5.83</time>
   <energy>
    <i name="alphaZ">     58.30706670 </i>
    <i name="ewald">   4684.87574872 </i>
    <i name="hartreedc">  -6441.12472969 </i>
    <i name="XCdc">    180.63291911 </i>
    <i name="pawpsdc">   5778.54434201 </i>
    <i name="pawaedc">  -5782.97000317 </i>
    <i name="eentropy">     -0.00156718 </i>
    <i name="bandstr">   -507.05913116 </i>
    <i name="atom">   1903.26342058 </i>
    <i name="e_fr_energy">   -125.53193409 </i>
    <i name="e_wo_entrp">   -125.53036691 </i>
    <i name="e_0_energy">   -125.53115050 </i>
   </energy>
  </scstep>
  <scstep>
   <time name="dav">   11.64   11.70</time>
   <time name="total">   11.93   12.00</time>
   <energy>
    <i name="e_fr_energy">   -125.53218225 </i>
    <i name="e_wo_entrp">   -125.53061507 </i>
    <i name="e_0_energy">   -125.53139866 </i>
   </energy>
  </scstep>
  <scstep>
   <time name="dav">    8.37    8.42</time>
   <time name="total">    8.66    8.72</time>
   <energy>
    <i name="e_fr_energy">   -125.53216116 </i>
    <i name="e_wo_entrp">   -125.53059398 </i>
    <i name="e_0_energy">   -125.53137757 </i>
   </energy>
  </scstep>
  <scstep>
   <time name="dav">    9.61    9.66</time>
   <time name="total">    9.89    9.96</time>
   <energy>
    <i name="e_fr_energy">   -125.53216089 </i>
    <i name="e_wo_entrp">   -125.53059371 </i>
    <i name="e_0_energy">   -125.53137730 </i>
   </energy>
  </scstep>
  <scstep>
   <time name="dav">    9.10    9.16</time>
   <time name="total">    9.39    9.46</time>
   <energy>
    <i name="e_fr_energy">   -125.53215854 </i>
    <i name="e_wo_entrp">   -125.53059136 </i>
    <i name="e_0_energy">   -125.53137495 </i>
   </energy>
  </scstep>
  <scstep>
   <time name="dav">   10.45   10.51</time>
   <time name="total">   10.49   10.55</time>
   <energy>
    <i name="alphaZ">     58.30706670 </i>
    <i name="ewald">   4684.87574872 </i>
    <i name="hartreedc">  -6441.43642123 </i>
    <i name="XCdc">    180.63048693 </i>
    <i name="pawpsdc">   5785.16657480 </i>
    <i name="pawaedc">  -5789.59447844 </i>
    <i name="eentropy">     -0.00156719 </i>
    <i name="bandstr">   -506.74298888 </i>
    <i name="atom">   1903.26342058 </i>
    <i name="e_fr_energy">   -125.53215801 </i>
    <i name="e_wo_entrp">   -125.53059082 </i>
    <i name="e_0_energy">   -125.53137441 </i>
   </energy>
  </scstep>
  <structure>
   <crystal>
    <varray name="basis" >
     <v>       4.19675911       2.42300000       0.00000000 </v>
     <v>      -4.19675911       2.42300000       0.00000000 </v>
     <v>       0.00000000       0.00000000      15.00000000 </v>
    </varray>
    <i name="volume">    305.06241947 </i>
    <varray name="rec_basis" >
     <v>       0.11913955       0.20635576       0.00000000 </v>
     <v>      -0.11913955       0.20635576       0.00000000 </v>
     <v>       0.00000000       0.00000000       0.06666667 </v>
    </varray>
   </crystal>
   <varray name="positions" >
    <v>       0.00422041       0.00288546       0.10973698 </v>
    <v>       0.35875733       0.00269430       0.09985496 </v>
    <v>       0.00416889       0.35743153       0.09985502 </v>
    <v>       0.64968789       0.64818507       0.09988652 </v>
    <v>       0.32785773       0.32639832       0.10075130 </v>
    <v>       0.68058326       0.00273437       0.10079254 </v>
    <v>       0.00418748       0.67922048       0.10080192 </v>
    <v>       0.16652646       0.33361309       0.33753811 </v>
    <v>       0.33361115       0.16654113       0.33754150 </v>
    <v>       0.16702785       0.83340631       0.33754589 </v>
    <v>       0.33332980       0.66667191       0.33716176 </v>
    <v>       0.66666342       0.33332190       0.33716181 </v>
    <v>       0.83339470       0.16702612       0.33754480 </v>
    <v>       0.66635539       0.83294050       0.33753759 </v>
    <v>       0.83292225       0.66636351       0.33753530 </v>
   </varray>
  </structure>
  <varray name="forces" >
   <v>       0.00274360       0.00126192      -0.10086995 </v>
   <v>      -0.00864710       0.00291439      -0.00943357 </v>
   <v>       0.01174409      -0.00270648      -0.00898234 </v>
   <v>      -0.00531626       0.00024629      -0.01272676 </v>
   <v>      -0.00290710      -0.04544290       0.03587474 </v>
   <v>       0.03237793       0.02443518       0.03225886 </v>
   <v>      -0.02968774       0.02019165       0.03119230 </v>
   <v>       0.15785063      -0.03855039      -0.00938190 </v>
   <v>      -0.15686962      -0.04127642      -0.00974986 </v>
   <v>      -0.11205377      -0.10462078      -0.01032439 </v>
   <v>       0.00022827      -0.00774773       0.04548952 </v>
   <v>      -0.00477496      -0.00423369       0.04548535 </v>
[...]
    <v>       0.00441768       0.35809044       0.10105122 </v>
    <v>       0.64926190       0.64777884       0.10104343 </v>
    <v>       0.32808716       0.32660321       0.10081999 </v>
    <v>       0.68074863       0.00294042       0.10082858 </v>
    <v>       0.00442240       0.67926703       0.10083066 </v>
    <v>       0.16644322       0.33318952       0.33826849 </v>
    <v>       0.33312558       0.16650474       0.33827024 </v>
    <v>       0.16648318       0.83321753       0.33827450 </v>
    <v>       0.33312811       0.66652668       0.33816177 </v>
    <v>       0.66646171       0.33319206       0.33816170 </v>
    <v>       0.83315306       0.16654583       0.33827399 </v>
    <v>       0.66646544       0.83317792       0.33827216 </v>
    <v>       0.83311543       0.66652930       0.33827092 </v>
   </varray>
  </structure>
  <varray name="forces" >
   <v>       0.00021625      -0.00030293      -0.00002611 </v>
   <v>      -0.00102369      -0.00041544      -0.00025890 </v>
   <v>       0.00117122      -0.00042215      -0.00011655 </v>
   <v>       0.00002115       0.00106741       0.00139950 </v>
   <v>      -0.00008270       0.00035285      -0.00008257 </v>
   <v>       0.00071939       0.00016440      -0.00091578 </v>
   <v>      -0.00078846       0.00026760      -0.00106083 </v>
   <v>      -0.00113204       0.00026476       0.00029181 </v>
   <v>       0.00062622       0.00078035       0.00028472 </v>
   <v>       0.00099295      -0.00094797       0.00005225 </v>
   <v>       0.00012207       0.00073933       0.00039088 </v>
   <v>       0.00065589       0.00065532       0.00040713 </v>
   <v>      -0.00103556      -0.00079229       0.00002589 </v>
   <v>       0.00073555      -0.00056654      -0.00020396 </v>
   <v>      -0.00119823      -0.00084471      -0.00018748 </v>
  </varray>
  <varray name="stress" >
   <v>      -1.83969718       0.00062291      -0.00428149 </v>
   <v>       0.00062294      -1.84036027      -0.01240078 </v>
   <v>      -0.00428153      -0.01240078      -2.12724420 </v>
  </varray>
  <energy>
   <i name="e_fr_energy">   -127.12438971 </i>
   <i name="e_wo_entrp">   -127.12282251 </i>
   <i name="e_0_energy">   -127.12360611 </i>
  </energy>
  <time name="totalsc">   12.43   12.53</time>
 </calculation>
 <calculation>
  <scstep>
   <time name="dav">    3.42    3.44</time>
   <time name="total">    3.71    3.74</time>
   <energy>
    <i name="alphaZ">     58.30706670 </i>
    <i name="ewald">   4643.91710168 </i>
    <i name="hartreedc">  -6401.11847430 </i>
    <i name="XCdc">    180.65516197 </i>
    <i name="pawpsdc">   5795.86428756 </i>
    <i name="pawaedc">  -5800.29588020 </i>
    <i name="eentropy">     -0.00156719 </i>
    <i name="bandstr">   -506.13884413 </i>
    <i name="atom">   1903.26342058 </i>
    <i name="e_fr_energy">   -125.54772734 </i>
    <i name="e_wo_entrp">   -125.54616015 </i>
    <i name="e_0_energy">   -125.54694375 </i>
   </energy>
  </scstep>
  <scstep>
   <time name="dav">    3.39    3.42</time>
   <time name="total">    3.43    3.45</time>
   <energy>
    <i name="alphaZ">     58.30706670 </i>
    <i name="ewald">   4643.91710168 </i>
    <i name="hartreedc">  -6401.11848085 </i>
    <i name="XCdc">    180.65516201 </i>
    <i name="pawpsdc">   5795.86428269 </i>
    <i name="pawaedc">  -5800.29587533 </i>
    <i name="eentropy">     -0.00156719 </i>
    <i name="bandstr">   -506.13883763 </i>
    <i name="atom">   1903.26342058 </i>
    <i name="e_fr_energy">   -125.54772734 </i>
    <i name="e_wo_entrp">   -125.54616015 </i>
    <i name="e_0_energy">   -125.54694375 </i>
   </energy>
  </scstep>
  <structure>
   <crystal>
    <varray name="basis" >
     <v>       4.19675911       2.42300000       0.00000000 </v>
     <v>      -4.19675911       2.42300000       0.00000000 </v>
     <v>       0.00000000       0.00000000      15.00000000 </v>
    </varray>
    <i name="volume">    305.06241947 </i>
    <varray name="rec_basis" >
     <v>       0.11913955       0.20635576       0.00000000 </v>
     <v>      -0.11913955       0.20635576       0.00000000 </v>
     <v>       0.00000000       0.00000000       0.06666667 </v>
    </varray>
   </crystal>
   <varray name="positions" >
    <v>       0.00441214       0.00293512       0.09966809 </v>
    <v>       0.35956834       0.00293537       0.10105025 </v>
    <v>       0.00441768       0.35809044       0.10105122 </v>
    <v>       0.64926190       0.64777884       0.10104343 </v>
    <v>       0.32808716       0.32660321       0.10081999 </v>
    <v>       0.68074863       0.00294042       0.10082858 </v>
    <v>       0.00442240       0.67926703       0.10083066 </v>
    <v>       0.16644322       0.33318952       0.33826849 </v>
    <v>       0.33312558       0.16650474       0.33827024 </v>
    <v>       0.16648318       0.83321753       0.33827450 </v>
    <v>       0.33312811       0.66652668       0.33816177 </v>
    <v>       0.66646171       0.33319206       0.33816170 </v>
    <v>       0.83315306       0.16654583       0.33827399 </v>
    <v>       0.66646544       0.83317792       0.33827216 </v>
    <v>       0.83311543       0.66652930       0.33827092 </v>
   </varray>
  </structure>
  <varray name="forces" >
   <v>       0.00021626      -0.00030295      -0.00002609 </v>
   <v>      -0.00102369      -0.00041547      -0.00025890 </v>
   <v>       0.00117122      -0.00042216      -0.00011655 </v>
   <v>       0.00002116       0.00106746       0.00139951 </v>
   <v>      -0.00008269       0.00035289      -0.00008264 </v>
   <v>       0.00071944       0.00016444      -0.00091585 </v>
   <v>      -0.00078849       0.00026765      -0.00106089 </v>
   <v>      -0.00113206       0.00026474       0.00029183 </v>
   <v>       0.00062621       0.00078034       0.00028474 </v>
   <v>       0.00099296      -0.00094800       0.00005227 </v>
   <v>       0.00012206       0.00073933       0.00039091 </v>
   <v>       0.00065591       0.00065532       0.00040716 </v>
   <v>      -0.00103558      -0.00079231       0.00002591 </v>
   <v>       0.00073557      -0.00056655      -0.00020394 </v>
   <v>      -0.00119827      -0.00084473      -0.00018746 </v>
  </varray>
  <varray name="stress" >
   <v>      -1.83969706       0.00062292      -0.00428151 </v>
   <v>       0.00062292      -1.84035993      -0.01240075 </v>
   <v>      -0.00428153      -0.01240075      -2.12725064 </v>
  </varray>
  <energy>
   <i name="e_fr_energy">   -127.12438971 </i>
   <i name="e_wo_entrp">   -127.12282251 </i>
   <i name="e_0_energy">   -127.12360611 </i>
  </energy>
  <time name="totalsc">   11.84   11.93</time>
 </calculation>
 <calculation>
  <scstep>
   <time name="dav">    3.40    3.42</time>
   <time name="total">    3.69    3.72</time>
   <energy>
    <i name="alphaZ">     58.30706670 </i>
    <i name="ewald">   4643.91709562 </i>
    <i name="hartreedc">  -6401.11848220 </i>
    <i name="XCdc">    180.65516205 </i>
    <i name="pawpsdc">   5795.86427990 </i>
    <i name="pawaedc">  -5800.29587253 </i>
    <i name="eentropy">     -0.00156719 </i>
    <i name="bandstr">   -506.13883026 </i>
    <i name="atom">   1903.26342058 </i>
    <i name="e_fr_energy">   -125.54772734 </i>
    <i name="e_wo_entrp">   -125.54616015 </i>
    <i name="e_0_energy">   -125.54694375 </i>
   </energy>
  </scstep>
  <scstep>
   <time name="dav">    3.41    3.43</time>
   <time name="total">    3.44    3.46</time>
   <energy>
    <i name="alphaZ">     58.30706670 </i>
    <i name="ewald">   4643.91709562 </i>
    <i name="hartreedc">  -6401.11848708 </i>
    <i name="XCdc">    180.65516208 </i>
    <i name="pawpsdc">   5795.86427684 </i>
    <i name="pawaedc">  -5800.29586948 </i>
    <i name="eentropy">     -0.00156719 </i>
    <i name="bandstr">   -506.13882541 </i>
    <i name="atom">   1903.26342058 </i>
    <i name="e_fr_energy">   -125.54772734 </i>
    <i name="e_wo_entrp">   -125.54616015 </i>
    <i name="e_0_energy">   -125.54694375 </i>
   </energy>
  </scstep>
  <structure>
   <crystal>
    <varray name="basis" >
     <v>       4.19675911       2.42300000       0.00000000 </v>
     <v>      -4.19675911       2.42300000       0.00000000 </v>
     <v>       0.00000000       0.00000000      15.00000000 </v>
    </varray>
    <i name="volume">    305.06241947 </i>
    <varray name="rec_basis" >
     <v>       0.11913955       0.20635576       0.00000000 </v>
     <v>      -0.11913955       0.20635576       0.00000000 </v>
     <v>       0.00000000       0.00000000       0.06666667 </v>
    </varray>
   </crystal>
   <varray name="positions" >
    <v>       0.00441214       0.00293512       0.09966809 </v>
    <v>       0.35956834       0.00293537       0.10105025 </v>
    <v>       0.00441768       0.35809044       0.10105122 </v>
    <v>       0.64926190       0.64777884       0.10104343 </v>
    <v>       0.32808716       0.32660321       0.10081999 </v>
    <v>       0.68074863       0.00294042       0.10082858 </v>
    <v>       0.00442240       0.67926703       0.10083066 </v>
    <v>       0.16644322       0.33318952       0.33826849 </v>
    <v>       0.33312558       0.16650474       0.33827024 </v>
    <v>       0.16648318       0.83321753       0.33827450 </v>
    <v>       0.33312811       0.66652668       0.33816177 </v>
    <v>       0.66646171       0.33319206       0.33816170 </v>
    <v>       0.83315306       0.16654583       0.33827399 </v>
    <v>       0.66646544       0.83317792       0.33827216 </v>
    <v>       0.83311543       0.66652930       0.33827092 </v>
   </varray>
  </structure>
  <varray name="forces" >
   <v>       0.00021626      -0.00030296      -0.00002607 </v>
   <v>      -0.00102369      -0.00041548      -0.00025890 </v>
   <v>       0.00117122      -0.00042217      -0.00011655 </v>
   <v>       0.00002116       0.00106748       0.00139951 </v>
   <v>      -0.00008268       0.00035291      -0.00008269 </v>
   <v>       0.00071946       0.00016446      -0.00091590 </v>
   <v>      -0.00078851       0.00026768      -0.00106094 </v>
   <v>      -0.00113206       0.00026473       0.00029184 </v>
   <v>       0.00062621       0.00078033       0.00028475 </v>
   <v>       0.00099296      -0.00094801       0.00005229 </v>
   <v>       0.00012205       0.00073933       0.00039093 </v>
   <v>       0.00065591       0.00065531       0.00040718 </v>
   <v>      -0.00103559      -0.00079233       0.00002592 </v>
   <v>       0.00073558      -0.00056656      -0.00020393 </v>
   <v>      -0.00119829      -0.00084474      -0.00018745 </v>
  </varray>
  <varray name="stress" >
   <v>      -1.83969688       0.00062293      -0.00428152 </v>
   <v>       0.00062292      -1.84035968      -0.01240077 </v>
   <v>      -0.00428154      -0.01240076      -2.12725544 </v>
  </varray>
  <energy>
   <i name="e_fr_energy">   -127.12438971 </i>
   <i name="e_wo_entrp">   -127.12282251 </i>
   <i name="e_0_energy">   -127.12360611 </i>
  </energy>
  <time name="totalsc">   11.81   11.91</time>
 </calculation>
 <calculation>
  <scstep>
   <time name="dav">    3.40    3.42</time>
   <time name="total">    3.68    3.72</time>
   <energy>
    <i name="alphaZ">     58.30706670 </i>
    <i name="ewald">   4643.91709259 </i>
    <i name="hartreedc">  -6401.11848976 </i>
    <i name="XCdc">    180.65516211 </i>
    <i name="pawpsdc">   5795.86427501 </i>
    <i name="pawaedc">  -5800.29586764 </i>
    <i name="eentropy">     -0.00156719 </i>
    <i name="bandstr">   -506.13881973 </i>
    <i name="atom">   1903.26342058 </i>
    <i name="e_fr_energy">   -125.54772734 </i>
    <i name="e_wo_entrp">   -125.54616015 </i>
    <i name="e_0_energy">   -125.54694375 </i>
   </energy>
  </scstep>
  <scstep>
   <time name="dav">    3.40    3.42</time>
   <time name="total">    3.43    3.45</time>
   <energy>
    <i name="alphaZ">     58.30706670 </i>
    <i name="ewald">   4643.91709259 </i>
    <i name="hartreedc">  -6401.11849338 </i>
    <i name="XCdc">    180.65516213 </i>
    <i name="pawpsdc">   5795.86427312 </i>
    <i name="pawaedc">  -5800.29586575 </i>
    <i name="eentropy">     -0.00156719 </i>
    <i name="bandstr">   -506.13881613 </i>
    <i name="atom">   1903.26342058 </i>
    <i name="e_fr_energy">   -125.54772734 </i>
    <i name="e_wo_entrp">   -125.54616015 </i>
    <i name="e_0_energy">   -125.54694375 </i>
   </energy>
  </scstep>
  <structure>
   <crystal>
    <varray name="basis" >
     <v>       4.19675911       2.42300000       0.00000000 </v>
     <v>      -4.19675911       2.42300000       0.00000000 </v>
     <v>       0.00000000       0.00000000      15.00000000 </v>
    </varray>
    <i name="volume">    305.06241947 </i>
    <varray name="rec_basis" >
     <v>       0.11913955       0.20635576       0.00000000 </v>
     <v>      -0.11913955       0.20635576       0.00000000 </v>
     <v>       0.00000000       0.00000000       0.06666667 </v>
    </varray>
   </crystal>
   <varray name="positions" >
    <v>       0.00441214       0.00293512       0.09966809 </v>
    <v>       0.35956834       0.00293537       0.10105025 </v>
    <v>       0.00441768       0.35809044       0.10105122 </v>
    <v>       0.64926190       0.64777884       0.10104343 </v>
    <v>       0.32808716       0.32660321       0.10081999 </v>
    <v>       0.68074863       0.00294042       0.10082858 </v>
    <v>       0.00442240       0.67926703       0.10083066 </v>
    <v>       0.16644322       0.33318952       0.33826849 </v>
    <v>       0.33312558       0.16650474       0.33827024 </v>
    <v>       0.16648318       0.83321753       0.33827450 </v>
    <v>       0.33312811       0.66652668       0.33816177 </v>
    <v>       0.66646171       0.33319206       0.33816170 </v>
    <v>       0.83315306       0.16654583       0.33827399 </v>
    <v>       0.66646544       0.83317792       0.33827216 </v>
    <v>       0.83311543       0.66652930       0.33827092 </v>
   </varray>
  </structure>
  <varray name="forces" >
   <v>       0.00021627      -0.00030296      -0.00002606 </v>
   <v>      -0.00102369      -0.00041548      -0.00025889 </v>
   <v>       0.00117122      -0.00042217      -0.00011655 </v>
   <v>       0.00002116       0.00106749       0.00139952 </v>
   <v>      -0.00008268       0.00035292      -0.00008272 </v>
   <v>       0.00071947       0.00016447      -0.00091593 </v>
   <v>      -0.00078851       0.00026769      -0.00106096 </v>
   <v>      -0.00113206       0.00026473       0.00029185 </v>
   <v>       0.00062621       0.00078033       0.00028476 </v>
   <v>       0.00099296      -0.00094802       0.00005229 </v>
   <v>       0.00012205       0.00073932       0.00039093 </v>
   <v>       0.00065592       0.00065531       0.00040719 </v>
   <v>      -0.00103560      -0.00079233       0.00002593 </v>
   <v>       0.00073559      -0.00056656      -0.00020392 </v>
   <v>      -0.00119830      -0.00084474      -0.00018744 </v>
  </varray>
  <varray name="stress" >
   <v>      -1.83969678       0.00062292      -0.00428151 </v>
   <v>       0.00062292      -1.84035945      -0.01240076 </v>
   <v>      -0.00428155      -0.01240076      -2.12725903 </v>
  </varray>
  <energy>
   <i name="e_fr_energy">   -127.12438971 </i>
   <i name="e_wo_entrp">   -127.12282251 </i>
   <i name="e_0_energy">   -127.12360611 </i>
  </energy>
  <time name="totalsc">   11.80   11.89</time>
 </calculation>
 <calculation>
  <scstep>
   <time name="dav">    5.50    5.53</time>
   <time name="total">    5.79    5.84</time>
   <energy>
    <i name="alphaZ">     58.30706670 </i>
    <i name="ewald">   4644.59473644 </i>
    <i name="hartreedc">  -6401.79368951 </i>
    <i name="XCdc">    180.65552222 </i>
    <i name="pawpsdc">   5795.86427186 </i>
    <i name="pawaedc">  -5800.29586449 </i>
    <i name="eentropy">     -0.00156719 </i>
    <i name="bandstr">   -506.14151303 </i>
    <i name="atom">   1903.26342058 </i>
    <i name="e_fr_energy">   -125.54761643 </i>
    <i name="e_wo_entrp">   -125.54604923 </i>
    <i name="e_0_energy">   -125.54683283 </i>
   </energy>
  </scstep>
  <scstep>
   <time name="dav">    8.01    8.06</time>
   <time name="total">    8.30    8.37</time>
   <energy>
    <i name="e_fr_energy">   -125.54761596 </i>
    <i name="e_wo_entrp">   -125.54604877 </i>
    <i name="e_0_energy">   -125.54683236 </i>
   </energy>
  </scstep>
  <scstep>
   <time name="dav">    8.46    8.51</time>
   <time name="total">    8.50    8.54</time>
   <energy>
    <i name="alphaZ">     58.30706670 </i>
    <i name="ewald">   4644.59473644 </i>
    <i name="hartreedc">  -6401.80234807 </i>
    <i name="XCdc">    180.65541442 </i>
    <i name="pawpsdc">   5795.89344634 </i>
    <i name="pawaedc">  -5800.32504884 </i>
    <i name="eentropy">     -0.00156719 </i>
    <i name="bandstr">   -506.13273632 </i>
    <i name="atom">   1903.26342058 </i>
    <i name="e_fr_energy">   -125.54761594 </i>
    <i name="e_wo_entrp">   -125.54604875 </i>
    <i name="e_0_energy">   -125.54683234 </i>
   </energy>
  </scstep>
  <structure>
   <crystal>
    <varray name="basis" >
     <v>       4.19675911       2.42300000       0.00000000 </v>
     <v>      -4.19675911       2.42300000       0.00000000 </v>
     <v>       0.00000000       0.00000000      15.00000000 </v>
    </varray>
    <i name="volume">    305.06241947 </i>
    <varray name="rec_basis" >
     <v>       0.11913955       0.20635576       0.00000000 </v>
     <v>      -0.11913955       0.20635576       0.00000000 </v>
     <v>       0.00000000       0.00000000       0.06666667 </v>
    </varray>
   </crystal>
   <varray name="positions" >
    <v>       0.00439815       0.00293182       0.09966370 </v>
    <v>       0.35953843       0.00290370       0.10106675 </v>
    <v>       0.00438944       0.35807573       0.10106772 </v>
    <v>       0.64926656       0.64778045       0.10106290 </v>
    <v>       0.32808458       0.32659495       0.10082833 </v>
    <v>       0.68074436       0.00293014       0.10084568 </v>
    <v>       0.00441596       0.67927713       0.10084970 </v>
    <v>       0.16645174       0.33319679       0.33825599 </v>
    <v>       0.33313647       0.16651209       0.33825765 </v>
    <v>       0.16649206       0.83322165       0.33826234 </v>
    <v>       0.33313998       0.66653576       0.33815218 </v>
    <v>       0.66647484       0.33319927       0.33815214 </v>
    <v>       0.83316048       0.16655203       0.33826174 </v>
    <v>       0.66647819       0.83318344       0.33826017 </v>
    <v>       0.83312277       0.66653904       0.33825901 </v>
   </varray>
  </structure>
  <varray name="forces" >
   <v>       0.00008196       0.00145230      -0.00004574 </v>
   <v>      -0.00085730       0.00215308      -0.00029763 </v>
   <v>       0.00171345       0.00123079      -0.00017140 </v>
   <v>      -0.00039475      -0.00109829       0.00101190 </v>
   <v>      -0.00096737      -0.00008535       0.00017529 </v>
   <v>      -0.00170284      -0.00080506      -0.00143625 </v>
   <v>       0.00239104      -0.00196214      -0.00178523 </v>
   <v>      -0.00062447       0.00050819       0.00066408 </v>
   <v>       0.00058520       0.00047738       0.00069287 </v>
   <v>       0.00020222      -0.00008314       0.00038751 </v>
   <v>       0.00044817      -0.00006739       0.00008843 </v>
   <v>      -0.00068280       0.00001824       0.00008753 </v>
   <v>      -0.00019004      -0.00010659       0.00038067 </v>
   <v>      -0.00107932      -0.00077517       0.00011943 </v>
   <v>       0.00107686      -0.00085685       0.00012853 </v>
  </varray>
  <varray name="stress" >
   <v>      -1.82996274       0.00003153      -0.00425211 </v>
   <v>       0.00003154      -1.84706880      -0.01249380 </v>
   <v>      -0.00425212      -0.01249384      -2.12076362 </v>
  </varray>
  <energy>
   <i name="e_fr_energy">   -127.12438875 </i>
   <i name="e_wo_entrp">   -127.12282156 </i>
   <i name="e_0_energy">   -127.12360515 </i>
  </energy>
