Lattice                                 
           1
     4.312807    2.490000    0.000000
    -4.312807    2.490000    0.000000
     0.000000    0.000000   15.000000
   B    C 
     8     8
Direct configuration=     1
   0.66888689  0.00000000  0.10000000
   0.33111211  0.00000000  0.10000000
   0.00000000  0.33111211  0.10000000
   0.00000000  0.66888689  0.10000000
   0.33111211  0.33111211  0.10000000
   0.66888689  0.66888689  0.10000000
   0.66666600  0.33333300  0.09922189
   0.33333300  0.66666600  0.10077811
   0.16666600  0.33333300  0.46773333
   0.33333300  0.16666600  0.46773333
   0.16666600  0.83333300  0.46773333
   0.33333300  0.66666600  0.46773333
   0.66666600  0.33333300  0.46773333
   0.83333300  0.16666600  0.46773333
   0.66666600  0.83333300  0.46773333
   0.83333300  0.66666600  0.46773333
Direct configuration=     2
   0.67055661  0.00000002  0.10002695
   0.32944242  0.00000002  0.10002695
  -0.00000002  0.32944239  0.10002695
  -0.00000002  0.67055658  0.10002695
   0.32944242  0.32944239  0.10002695
   0.67055661  0.67055658  0.10002695
   0.66666600  0.33333300  0.09924543
   0.33333300  0.66666600  0.10081464
   0.16666368  0.33332836  0.46770560
   0.33332848  0.16666374  0.46770562
   0.16666368  0.83333532  0.46770560
   0.33333300  0.66666600  0.46770558
   0.66666600  0.33333300  0.46770567
   0.83333526  0.16666374  0.46770562
   0.66667064  0.83333532  0.46770560
   0.83333526  0.66667052  0.46770562
Direct configuration=     3
   0.66974637  0.00000001  0.10001387
   0.33025264  0.00000001  0.10001387
  -0.00000001  0.33025263  0.10001387
  -0.00000001  0.66974636  0.10001387
   0.33025264  0.33025263  0.10001387
   0.66974637  0.66974636  0.10001387
   0.66666600  0.33333300  0.09923400
   0.33333300  0.66666600  0.10079691
   0.16666481  0.33333061  0.46771906
   0.33333067  0.16666484  0.46771907
   0.16666481  0.83333419  0.46771906
   0.33333300  0.66666600  0.46771905
   0.66666600  0.33333300  0.46771909
   0.83333416  0.16666484  0.46771907
   0.66666839  0.83333419  0.46771906
   0.83333416  0.66666833  0.46771907
Direct configuration=     4
   0.66975176  0.00000001  0.10001396
   0.33024725  0.00000001  0.10001396
  -0.00000001  0.33024724  0.10001396
  -0.00000001  0.66975175  0.10001396
   0.33024725  0.33024724  0.10001396
   0.66975176  0.66975175  0.10001396
   0.66666600  0.33333300  0.09923408
   0.33333300  0.66666600  0.10079703
   0.16666480  0.33333060  0.46771897
   0.33333066  0.16666483  0.46771898
   0.16666480  0.83333420  0.46771897
   0.33333300  0.66666600  0.46771896
   0.66666600  0.33333300  0.46771900
   0.83333417  0.16666483  0.46771898
   0.66666840  0.83333420  0.46771897
   0.83333417  0.66666834  0.46771898
Direct configuration=     5
   0.66974969  0.00000001  0.10001393
   0.33024932  0.00000001  0.10001393
  -0.00000001  0.33024931  0.10001393
  -0.00000001  0.66974968  0.10001393
   0.33024932  0.33024931  0.10001393
   0.66974969  0.66974968  0.10001393
   0.66666600  0.33333300  0.09923405
   0.33333300  0.66666600  0.10079699
   0.16666480  0.33333060  0.46771900
   0.33333067  0.16666483  0.46771901
   0.16666480  0.83333420  0.46771900
   0.33333300  0.66666600  0.46771899
   0.66666600  0.33333300  0.46771904
   0.83333417  0.16666483  0.46771901
   0.66666840  0.83333420  0.46771900
   0.83333417  0.66666833  0.46771901
Direct configuration=     6
   0.66974803  0.00000001  0.10001390
   0.33025098  0.00000001  0.10001390
  -0.00000001  0.33025097  0.10001390
  -0.00000001  0.66974802  0.10001390
   0.33025098  0.33025097  0.10001390
   0.66974803  0.66974802  0.10001390
   0.66666600  0.33333300  0.09923403
   0.33333300  0.66666600  0.10079695
   0.16666480  0.33333061  0.46771903
   0.33333067  0.16666483  0.46771904
   0.16666480  0.83333420  0.46771903
   0.33333300  0.66666600  0.46771902
   0.66666600  0.33333300  0.46771907
   0.83333417  0.16666483  0.46771904
   0.66666839  0.83333420  0.46771903
   0.83333417  0.66666833  0.46771904
Direct configuration=     7
   0.66974802 -0.00000002  0.10003853
   0.33025097 -0.00000002  0.10003853
   0.00000002  0.33025098  0.10003853
   0.00000002  0.66974803  0.10003853
   0.33025097  0.33025098  0.10003853
   0.66974802  0.66974803  0.10003853
   0.66666600  0.33333300  0.09925822
   0.33333300  0.66666600  0.10082670
   0.16666653  0.33333406  0.46769380
   0.33333403  0.16666651  0.46769383
   0.16666653  0.83333247  0.46769380
   0.33333300  0.66666600  0.46769380
   0.66666600  0.33333300  0.46769390
   0.83333249  0.16666651  0.46769383
   0.66666494  0.83333247  0.46769380
   0.83333249  0.66666497  0.46769383
Direct configuration=     8
   0.66974797 -0.00000011  0.10011242
   0.33025092 -0.00000011  0.10011242
   0.00000011  0.33025103  0.10011242
   0.00000011  0.66974808  0.10011242
   0.33025092  0.33025103  0.10011242
   0.66974797  0.66974808  0.10011242
   0.66666600  0.33333300  0.09933078
   0.33333300  0.66666600  0.10091597
   0.16667172  0.33334443  0.46761811
   0.33334410  0.16667155  0.46761819
   0.16667172  0.83332728  0.46761811
   0.33333300  0.66666600  0.46761812
   0.66666600  0.33333300  0.46761839
   0.83332745  0.16667155  0.46761819
   0.66665457  0.83332728  0.46761811
   0.83332745  0.66665490  0.46761819
Direct configuration=     9
   0.66974788 -0.00000028  0.10026019
   0.33025084 -0.00000028  0.10026019
   0.00000028  0.33025112  0.10026019
   0.00000028  0.66974816  0.10026019
   0.33025084  0.33025112  0.10026019
   0.66974788  0.66974816  0.10026019
   0.66666600  0.33333300  0.09947591
   0.33333300  0.66666600  0.10109449
   0.16668209  0.33336518  0.46746674
   0.33336425  0.16668162  0.46746692
   0.16668209  0.83331691  0.46746674
   0.33333300  0.66666600  0.46746676
   0.66666600  0.33333300  0.46746737
   0.83331738  0.16668162  0.46746692
   0.66663382  0.83331691  0.46746674
   0.83331738  0.66663475  0.46746692
Direct configuration=    10
   0.66974770 -0.00000064  0.10055574
   0.33025066 -0.00000064  0.10055574
   0.00000064  0.33025130  0.10055574
   0.00000064  0.66974834  0.10055574
   0.33025066  0.33025130  0.10055574
   0.66974770  0.66974834  0.10055574
   0.66666600  0.33333300  0.09976618
   0.33333300  0.66666600  0.10145154
   0.16670283  0.33340666  0.46716398
   0.33340454  0.16670177  0.46716439
   0.16670283  0.83329617  0.46716398
   0.33333300  0.66666600  0.46716405
   0.66666600  0.33333300  0.46716533
   0.83329723  0.16670177  0.46716439
   0.66659234  0.83329617  0.46716398
   0.83329723  0.66659446  0.46716439
Direct configuration=    11
   0.66974733 -0.00000135  0.10114685
   0.33025032 -0.00000135  0.10114685
   0.00000135  0.33025167  0.10114685
   0.00000135  0.66974868  0.10114685
   0.33025032  0.33025167  0.10114685
   0.66974733  0.66974868  0.10114685
   0.66666600  0.33333300  0.10034671
   0.33333300  0.66666600  0.10216564
   0.16674431  0.33348963  0.46655848
   0.33348512  0.16674206  0.46655931
   0.16674431  0.83325469  0.46655848
   0.33333300  0.66666600  0.46655862
   0.66666600  0.33333300  0.46656125
   0.83325694  0.16674206  0.46655931
   0.66650937  0.83325469  0.46655848
   0.83325694  0.66651388  0.46655931
Direct configuration=    12
   0.66974660 -0.00000277  0.10232905
   0.33024963 -0.00000277  0.10232905
   0.00000277  0.33025240  0.10232905
   0.00000277  0.66974937  0.10232905
   0.33024963  0.33025240  0.10232905
   0.66974660  0.66974937  0.10232905
   0.66666600  0.33333300  0.10150776
   0.33333300  0.66666600  0.10359383
   0.16682728  0.33365556  0.46534748
   0.33364629  0.16682265  0.46534916
   0.16682728  0.83317172  0.46534748
   0.33333300  0.66666600  0.46534776
   0.66666600  0.33333300  0.46535310
   0.83317635  0.16682265  0.46534916
   0.66634344  0.83317172  0.46534748
   0.83317635  0.66635271  0.46534916
Direct configuration=    13
   0.66974513 -0.00000562  0.10469345
   0.33024825 -0.00000562  0.10469345
   0.00000562  0.33025387  0.10469345
   0.00000562  0.66975075  0.10469345
   0.33024825  0.33025387  0.10469345
   0.66974513  0.66975075  0.10469345
   0.66666600  0.33333300  0.10382987
   0.33333300  0.66666600  0.10645022
   0.16699322  0.33398744  0.46292548
   0.33396864  0.16698382  0.46292886
   0.16699322  0.83300578  0.46292548
   0.33333300  0.66666600  0.46292605
   0.66666600  0.33333300  0.46293680
   0.83301518  0.16698382  0.46292886
   0.66601156  0.83300578  0.46292548
   0.83301518  0.66603036  0.46292886
Direct configuration=    14
   0.66974220 -0.00001131  0.10942227
   0.33024549 -0.00001131  0.10942227
   0.00001131  0.33025680  0.10942227
   0.00001131  0.66975351  0.10942227
   0.33024549  0.33025680  0.10942227
   0.66974220  0.66975351  0.10942227
   0.66666600  0.33333300  0.10847409
   0.33333300  0.66666600  0.11216299
   0.16732509  0.33465118  0.45808147
   0.33461332  0.16730616  0.45808825
   0.16732509  0.83267391  0.45808147
   0.33333300  0.66666600  0.45808262
   0.66666600  0.33333300  0.45810420
   0.83269284  0.16730616  0.45808825
   0.66534782  0.83267391  0.45808147
   0.83269284  0.66538568  0.45808825
Direct configuration=    15
   0.66973634 -0.00002268  0.11887989
   0.33023997 -0.00002268  0.11887989
   0.00002268  0.33026266  0.11887989
   0.00002268  0.66975903  0.11887989
   0.33023997  0.33026266  0.11887989
   0.66973634  0.66975903  0.11887989
   0.66666600  0.33333300  0.11776254
   0.33333300  0.66666600  0.12358855
   0.16798883  0.33597867  0.44839344
   0.33590268  0.16795084  0.44840704
   0.16798883  0.83201017  0.44839344
   0.33333300  0.66666600  0.44839577
   0.66666600  0.33333300  0.44843900
   0.83204816  0.16795084  0.44840704
   0.66402033  0.83201017  0.44839344
   0.83204816  0.66409632  0.44840704
Direct configuration=    16
   0.66972463 -0.00004544  0.13779514
   0.33022893 -0.00004544  0.13779514
   0.00004544  0.33027437  0.13779514
   0.00004544  0.66977007  0.13779514
   0.33022893  0.33027437  0.13779514
   0.66972463  0.66977007  0.13779514
   0.66666600  0.33333300  0.13633943
   0.33333300  0.66666600  0.14643965
   0.16931632  0.33863364  0.42901740
   0.33848141  0.16924020  0.42904463
   0.16931632  0.83068268  0.42901740
   0.33333300  0.66666600  0.42902207
   0.66666600  0.33333300  0.42910859
   0.83075880  0.16924020  0.42904463
   0.66136536  0.83068268  0.42901740
   0.83075880  0.66151759  0.42904463
Direct configuration=    17
   0.66973090 -0.00003326  0.12766813
   0.33023484 -0.00003326  0.12766813
   0.00003326  0.33026810  0.12766813
   0.00003326  0.66976416  0.12766813
   0.33023484  0.33026810  0.12766813
   0.66973090  0.66976416  0.12766813
   0.66666600  0.33333300  0.12639357
   0.33333300  0.66666600  0.13420542
   0.16860560  0.33721220  0.43939112
   0.33710079  0.16854989  0.43941105
   0.16860560  0.83139340  0.43939112
   0.33333300  0.66666600  0.43939454
   0.66666600  0.33333300  0.43945787
   0.83144911  0.16854989  0.43941105
   0.66278680  0.83139340  0.43939112
   0.83144911  0.66289821  0.43941105
Direct configuration=    18
   0.66973090 -0.00003326  0.12766886
   0.33023484 -0.00003326  0.12766886
   0.00003326  0.33026810  0.12766886
   0.00003326  0.66976416  0.12766886
   0.33023484  0.33026810  0.12766886
   0.66973090  0.66976416  0.12766886
   0.66666600  0.33333300  0.12639428
   0.33333300  0.66666600  0.13420631
   0.16860563  0.33721225  0.43939037
   0.33710084  0.16854992  0.43941030
   0.16860563  0.83139337  0.43939037
   0.33333300  0.66666600  0.43939379
   0.66666600  0.33333300  0.43945713
   0.83144908  0.16854992  0.43941030
   0.66278675  0.83139337  0.43939037
   0.83144908  0.66289816  0.43941030
Direct configuration=    19
   0.66973089 -0.00003326  0.12767105
   0.33023484 -0.00003326  0.12767105
   0.00003326  0.33026811  0.12767105
   0.00003326  0.66976416  0.12767105
   0.33023484  0.33026811  0.12767105
   0.66973089  0.66976416  0.12767105
   0.66666600  0.33333300  0.12639644
   0.33333300  0.66666600  0.13420896
   0.16860571  0.33721241  0.43938812
   0.33710099  0.16855000  0.43940805
   0.16860571  0.83139329  0.43938812
   0.33333300  0.66666600  0.43939154
   0.66666600  0.33333300  0.43945488
   0.83144900  0.16855000  0.43940805
   0.66278659  0.83139329  0.43938812
   0.83144900  0.66289801  0.43940805
Direct configuration=    20
   0.66973088 -0.00003327  0.12767544
   0.33023484 -0.00003327  0.12767544
   0.00003327  0.33026812  0.12767544
   0.00003327  0.66976416  0.12767544
   0.33023484  0.33026812  0.12767544
   0.66973088  0.66976416  0.12767544
   0.66666600  0.33333300  0.12640074
   0.33333300  0.66666600  0.13421425
   0.16860587  0.33721273  0.43938363
   0.33710130  0.16855015  0.43940356
   0.16860587  0.83139313  0.43938363
   0.33333300  0.66666600  0.43938705
   0.66666600  0.33333300  0.43945040
   0.83144885  0.16855015  0.43940356
   0.66278627  0.83139313  0.43938363
   0.83144885  0.66289770  0.43940356
Direct configuration=    21
   0.66973087 -0.00003329  0.12768422
   0.33023484 -0.00003329  0.12768422
   0.00003329  0.33026813  0.12768422
   0.00003329  0.66976416  0.12768422
   0.33023484  0.33026813  0.12768422
   0.66973087  0.66976416  0.12768422
   0.66666600  0.33333300  0.12640936
   0.33333300  0.66666600  0.13422485
   0.16860619  0.33721337  0.43937464
   0.33710193  0.16855046  0.43939458
   0.16860619  0.83139281  0.43937464
   0.33333300  0.66666600  0.43937805
   0.66666600  0.33333300  0.43944143
   0.83144854  0.16855046  0.43939458
   0.66278563  0.83139281  0.43937464
   0.83144854  0.66289707  0.43939458
Direct configuration=    22
   0.66973083 -0.00003334  0.12770178
   0.33023484 -0.00003334  0.12770178
   0.00003334  0.33026817  0.12770178
   0.00003334  0.66976416  0.12770178
   0.33023484  0.33026817  0.12770178
   0.66973083  0.66976416  0.12770178
   0.66666600  0.33333300  0.12642658
   0.33333300  0.66666600  0.13424604
   0.16860682  0.33721465  0.43935665
   0.33710317  0.16855108  0.43937661
   0.16860682  0.83139218  0.43935665
   0.33333300  0.66666600  0.43936007
   0.66666600  0.33333300  0.43942348
   0.83144792  0.16855108  0.43937661
   0.66278435  0.83139218  0.43935665
   0.83144792  0.66289583  0.43937661
Direct configuration=    23
   0.66973075 -0.00003342  0.12773691
   0.33023483 -0.00003342  0.12773691
   0.00003342  0.33026825  0.12773691
   0.00003342  0.66976417  0.12773691
   0.33023483  0.33026825  0.12773691
   0.66973075  0.66976417  0.12773691
   0.66666600  0.33333300  0.12646104
   0.33333300  0.66666600  0.13428843
   0.16860810  0.33721720  0.43932069
   0.33710565  0.16855233  0.43934066
   0.16860810  0.83139090  0.43932069
   0.33333300  0.66666600  0.43932411
   0.66666600  0.33333300  0.43938759
   0.83144667  0.16855233  0.43934066
   0.66278180  0.83139090  0.43932069
   0.83144667  0.66289335  0.43934066
Direct configuration=    24
   0.66973060 -0.00003358  0.12780715
   0.33023482 -0.00003358  0.12780715
   0.00003358  0.33026840  0.12780715
   0.00003358  0.66976418  0.12780715
   0.33023482  0.33026840  0.12780715
   0.66973060  0.66976418  0.12780715
   0.66666600  0.33333300  0.12652994
   0.33333300  0.66666600  0.13437320
   0.16861066  0.33722231  0.43924876
   0.33711062  0.16855481  0.43926878
   0.16861066  0.83138834  0.43924876
   0.33333300  0.66666600  0.43925219
   0.66666600  0.33333300  0.43931582
   0.83144419  0.16855481  0.43926878
   0.66277669  0.83138834  0.43924876
   0.83144419  0.66288838  0.43926878
Direct configuration=    25
   0.66973030 -0.00003391  0.12794764
   0.33023479 -0.00003391  0.12794764
   0.00003391  0.33026870  0.12794764
   0.00003391  0.66976421  0.12794764
   0.33023479  0.33026870  0.12794764
   0.66973030  0.66976421  0.12794764
   0.66666600  0.33333300  0.12666775
   0.33333300  0.66666600  0.13454273
   0.16861577  0.33723253  0.43910490
   0.33712057  0.16855978  0.43912502
   0.16861577  0.83138323  0.43910490
   0.33333300  0.66666600  0.43910834
   0.66666600  0.33333300  0.43917227
   0.83143922  0.16855978  0.43912502
   0.66276647  0.83138323  0.43910490
   0.83143922  0.66287843  0.43912502
Direct configuration=    26
   0.66972969 -0.00003456  0.12822862
   0.33023475 -0.00003456  0.12822862
   0.00003456  0.33026931  0.12822862
   0.00003456  0.66976425  0.12822862
   0.33023475  0.33026931  0.12822862
   0.66972969  0.66976425  0.12822862
   0.66666600  0.33333300  0.12694337
   0.33333300  0.66666600  0.13488181
   0.16862599  0.33725297  0.43881718
   0.33714045  0.16856973  0.43883748
   0.16862599  0.83137301  0.43881718
   0.33333300  0.66666600  0.43882064
   0.66666600  0.33333300  0.43888517
   0.83142927  0.16856973  0.43883748
   0.66274603  0.83137301  0.43881718
   0.83142927  0.66285855  0.43883748
Direct configuration=    27
   0.66972848 -0.00003586  0.12879057
   0.33023465 -0.00003586  0.12879057
   0.00003586  0.33027052  0.12879057
   0.00003586  0.66976435  0.12879057
   0.33023465  0.33027052  0.12879057
   0.66972848  0.66976435  0.12879057
   0.66666600  0.33333300  0.12749461
   0.33333300  0.66666600  0.13555996
   0.16864643  0.33729385  0.43824174
   0.33718022  0.16858961  0.43826242
   0.16864643  0.83135257  0.43824174
   0.33333300  0.66666600  0.43824524
   0.66666600  0.33333300  0.43831098
   0.83140939  0.16858961  0.43826242
   0.66270515  0.83135257  0.43824174
   0.83140939  0.66281878  0.43826242
Direct configuration=    28
   0.66972607 -0.00003848  0.12991447
   0.33023446 -0.00003848  0.12991447
   0.00003848  0.33027293  0.12991447
   0.00003848  0.66976454  0.12991447
   0.33023446  0.33027293  0.12991447
   0.66972607  0.66976454  0.12991447
   0.66666600  0.33333300  0.12859709
   0.33333300  0.66666600  0.13691626
   0.16868731  0.33737562  0.43709085
   0.33725975  0.16862938  0.43711230
   0.16868731  0.83131169  0.43709085
   0.33333300  0.66666600  0.43709444
   0.66666600  0.33333300  0.43716259
   0.83136962  0.16862938  0.43711230
   0.66262338  0.83131169  0.43709085
   0.83136962  0.66273925  0.43711230
Direct configuration=    29
   0.66972123 -0.00004370  0.13216228
   0.33023407 -0.00004370  0.13216228
   0.00004370  0.33027777  0.13216228
   0.00004370  0.66976493  0.13216228
   0.33023407  0.33027777  0.13216228
   0.66972123  0.66976493  0.13216228
   0.66666600  0.33333300  0.13080205
   0.33333300  0.66666600  0.13962886
   0.16876907  0.33753914  0.43478909
   0.33741883  0.16870891  0.43481205
   0.16876907  0.83122993  0.43478909
   0.33333300  0.66666600  0.43479284
   0.66666600  0.33333300  0.43486581
   0.83129009  0.16870891  0.43481205
   0.66245986  0.83122993  0.43478909
   0.83129009  0.66258017  0.43481205
Direct configuration=    30
   0.66971156 -0.00005414  0.13665790
   0.33023330 -0.00005414  0.13665790
   0.00005414  0.33028744  0.13665790
   0.00005414  0.66976570  0.13665790
   0.33023330  0.33028744  0.13665790
   0.66971156  0.66976570  0.13665790
   0.66666600  0.33333300  0.13521196
   0.33333300  0.66666600  0.14505406
   0.16893259  0.33786618  0.43018556
   0.33773697  0.16886798  0.43021155
   0.16893259  0.83106641  0.43018556
   0.33333300  0.66666600  0.43018965
   0.66666600  0.33333300  0.43027225
   0.83113102  0.16886798  0.43021155
   0.66213282  0.83106641  0.43018556
   0.83113102  0.66226203  0.43021155
Direct configuration=    31
   0.66969221 -0.00007503  0.14564914
   0.33023176 -0.00007503  0.14564914
   0.00007503  0.33030679  0.14564914
   0.00007503  0.66976724  0.14564914
   0.33023176  0.33030679  0.14564914
   0.66969221  0.66976724  0.14564914
   0.66666600  0.33333300  0.14403179
   0.33333300  0.66666600  0.15590447
   0.16925964  0.33852027  0.42097850
   0.33837326  0.16918613  0.42101055
   0.16925964  0.83073936  0.42097850
   0.33333300  0.66666600  0.42098326
   0.66666600  0.33333300  0.42108513
   0.83081287  0.16918613  0.42101055
   0.66147873  0.83073936  0.42097850
   0.83081287  0.66162574  0.42101055
Direct configuration=    32
   0.66965352 -0.00011680  0.16363163
   0.33022868 -0.00011680  0.16363163
   0.00011680  0.33034548  0.16363163
   0.00011680  0.66977032  0.16363163
   0.33022868  0.33034548  0.16363163
   0.66965352  0.66977032  0.16363163
   0.66666600  0.33333300  0.16167145
   0.33333300  0.66666600  0.17760528
   0.16991372  0.33982845  0.40256439
   0.33964583  0.16982242  0.40260855
   0.16991372  0.83008528  0.40256439
   0.33333300  0.66666600  0.40257048
   0.66666600  0.33333300  0.40271089
   0.83017658  0.16982242  0.40260855
   0.66017055  0.83008528  0.40256439
   0.83017658  0.66035317  0.40260855
Direct configuration=    33
   0.66967297 -0.00009580  0.15459262
   0.33023023 -0.00009580  0.15459262
   0.00009580  0.33032603  0.15459262
   0.00009580  0.66976877  0.15459262
   0.33023023  0.33032603  0.15459262
   0.66967297  0.66976877  0.15459262
   0.66666600  0.33333300  0.15280477
   0.33333300  0.66666600  0.16669723
   0.16958494  0.33917089  0.41182035
   0.33900616  0.16950258  0.41185842
   0.16958494  0.83041406  0.41182035
   0.33333300  0.66666600  0.41182577
   0.66666600  0.33333300  0.41194681
   0.83049642  0.16950258  0.41185842
   0.66082811  0.83041406  0.41182035
   0.83049642  0.66099284  0.41185842
Direct configuration=    34
   0.66966324 -0.00010630  0.15911213
   0.33022946 -0.00010630  0.15911213
   0.00010630  0.33033576  0.15911213
   0.00010630  0.66976954  0.15911213
   0.33022946  0.33033576  0.15911213
   0.66966324  0.66976954  0.15911213
   0.66666600  0.33333300  0.15723811
   0.33333300  0.66666600  0.17215125
   0.16974933  0.33949967  0.40719237
   0.33932600  0.16966250  0.40723349
   0.16974933  0.83024967  0.40719237
   0.33333300  0.66666600  0.40719813
   0.66666600  0.33333300  0.40732885
   0.83033650  0.16966250  0.40723349
   0.66049933  0.83024967  0.40719237
   0.83033650  0.66067300  0.40723349
Direct configuration=    35
   0.66960394 -0.00015126  0.16520176
   0.33024380 -0.00015126  0.16520176
   0.00015126  0.33039506  0.16520176
   0.00015126  0.66975520  0.16520176
   0.33024380  0.33039506  0.16520176
   0.66960394  0.66975520  0.16520176
   0.66666600  0.33333300  0.16319439
   0.33333300  0.66666600  0.17947847
   0.16963085  0.33926270  0.40096227
   0.33909917  0.16954909  0.40100616
   0.16963085  0.83036815  0.40096227
   0.33333300  0.66666600  0.40096828
   0.66666600  0.33333300  0.40110969
   0.83044991  0.16954909  0.40100616
   0.66073630  0.83036815  0.40096227
   0.83044991  0.66089983  0.40100616
Direct configuration=    36
   0.66959162 -0.00016060  0.16646687
   0.33024678 -0.00016060  0.16646687
   0.00016060  0.33040738  0.16646687
   0.00016060  0.66975222  0.16646687
   0.33024678  0.33040738  0.16646687
   0.66959162  0.66975222  0.16646687
   0.66666600  0.33333300  0.16443181
   0.33333300  0.66666600  0.18100069
   0.16960623  0.33921347  0.39966797
   0.33905205  0.16952553  0.39971244
   0.16960623  0.83039277  0.39966797
   0.33333300  0.66666600  0.39967403
   0.66666600  0.33333300  0.39981766
   0.83047347  0.16952553  0.39971244
   0.66078553  0.83039277  0.39966797
   0.83047347  0.66094695  0.39971244
Direct configuration=    37
   0.66952715 -0.00019693  0.16621714
   0.33027493 -0.00019693  0.16621714
   0.00019693  0.33047185  0.16621714
   0.00019693  0.66972407  0.16621714
   0.33027493  0.33047185  0.16621714
   0.66952715  0.66972407  0.16621714
   0.66666600  0.33333300  0.16416441
   0.33333300  0.66666600  0.18067548
   0.16927320  0.33854740  0.39993069
   0.33840903  0.16920401  0.39997262
   0.16927320  0.83072580  0.39993069
   0.33333300  0.66666600  0.39993705
   0.66666600  0.33333300  0.40007694
   0.83079499  0.16920401  0.39997262
   0.66145160  0.83072580  0.39993069
   0.83079499  0.66158997  0.39997262
Direct configuration=    38
   0.66933374 -0.00030592  0.16546794
   0.33035935 -0.00030592  0.16546794
   0.00030592  0.33066526  0.16546794
   0.00030592  0.66963965  0.16546794
   0.33035935  0.33066526  0.16546794
   0.66933374  0.66963965  0.16546794
   0.66666600  0.33333300  0.16336219
   0.33333300  0.66666600  0.17969986
   0.16827411  0.33654921  0.40071887
   0.33647996  0.16823948  0.40075316
   0.16827411  0.83172489  0.40071887
   0.33333300  0.66666600  0.40072610
   0.66666600  0.33333300  0.40085477
   0.83175952  0.16823948  0.40075316
   0.66344979  0.83172489  0.40071887
   0.83175952  0.66351904  0.40075316
Direct configuration=    39
   0.66894691 -0.00052390  0.16396954
   0.33052819 -0.00052390  0.16396954
   0.00052390  0.33105209  0.16396954
   0.00052390  0.66947081  0.16396954
   0.33052819  0.33105209  0.16396954
   0.66894691  0.66947081  0.16396954
   0.66666600  0.33333300  0.16175777
   0.33333300  0.66666600  0.17774862
   0.16627591  0.33255283  0.40229523
   0.33262181  0.16631041  0.40231423
   0.16627591  0.83372309  0.40229523
   0.33333300  0.66666600  0.40230420
   0.66666600  0.33333300  0.40241044
   0.83368859  0.16631041  0.40231423
   0.66744617  0.83372309  0.40229523
   0.83368859  0.66737719  0.40231423
Direct configuration=    40
   0.66901747 -0.00048413  0.16424286
   0.33049739 -0.00048413  0.16424286
   0.00048413  0.33098153  0.16424286
   0.00048413  0.66950161  0.16424286
   0.33049739  0.33098153  0.16424286
   0.66901747  0.66950161  0.16424286
   0.66666600  0.33333300  0.16205043
   0.33333300  0.66666600  0.17810454
   0.16664039  0.33328179  0.40200769
   0.33332556  0.16666228  0.40202948
   0.16664039  0.83335861  0.40200769
   0.33333300  0.66666600  0.40201635
   0.66666600  0.33333300  0.40212668
   0.83333672  0.16666228  0.40202948
   0.66671721  0.83335861  0.40200769
   0.83333672  0.66667344  0.40202948
Direct configuration=    41
   0.66896861 -0.00049731  0.16425747
   0.33053307 -0.00049731  0.16425747
   0.00049731  0.33103039  0.16425747
   0.00049731  0.66946593  0.16425747
   0.33053307  0.33103039  0.16425747
   0.66896861  0.66946593  0.16425747
   0.66666600  0.33333300  0.16201255
   0.33333300  0.66666600  0.17807202
   0.16664373  0.33328846  0.40200783
   0.33332705  0.16666303  0.40202629
   0.16664373  0.83335527  0.40200783
   0.33333300  0.66666600  0.40201573
   0.66666600  0.33333300  0.40211917
   0.83333597  0.16666303  0.40202629
   0.66671054  0.83335527  0.40200783
   0.83333597  0.66667195  0.40202629
Direct configuration=    42
   0.66882205 -0.00053684  0.16430131
   0.33064011 -0.00053684  0.16430131
   0.00053684  0.33117695  0.16430131
   0.00053684  0.66935889  0.16430131
   0.33064011  0.33117695  0.16430131
   0.66882205  0.66935889  0.16430131
   0.66666600  0.33333300  0.16189892
   0.33333300  0.66666600  0.17797448
   0.16665373  0.33330846  0.40200825
   0.33333153  0.16666527  0.40201671
   0.16665373  0.83334527  0.40200825
   0.33333300  0.66666600  0.40201387
   0.66666600  0.33333300  0.40209666
   0.83333373  0.16666527  0.40201671
   0.66669054  0.83334527  0.40200825
   0.83333373  0.66666747  0.40201671
Direct configuration=    43
   0.66852892 -0.00061590  0.16438899
   0.33085418 -0.00061590  0.16438899
   0.00061590  0.33147008  0.16438899
   0.00061590  0.66914482  0.16438899
   0.33085418  0.33147008  0.16438899
   0.66852892  0.66914482  0.16438899
   0.66666600  0.33333300  0.16167165
   0.33333300  0.66666600  0.17777941
   0.16667373  0.33334846  0.40200908
   0.33334049  0.16666975  0.40199755
   0.16667373  0.83332527  0.40200908
   0.33333300  0.66666600  0.40201015
   0.66666600  0.33333300  0.40205164
   0.83332925  0.16666975  0.40199755
   0.66665054  0.83332527  0.40200908
   0.83332925  0.66665851  0.40199755
Direct configuration=    44
   0.66794265 -0.00077403  0.16456435
   0.33128232 -0.00077403  0.16456435
   0.00077403  0.33205635  0.16456435
   0.00077403  0.66871668  0.16456435
   0.33128232  0.33205635  0.16456435
   0.66794265  0.66871668  0.16456435
   0.66666600  0.33333300  0.16121712
   0.33333300  0.66666600  0.17738926
   0.16671373  0.33342847  0.40201073
   0.33335841  0.16667871  0.40195922
   0.16671373  0.83328527  0.40201073
   0.33333300  0.66666600  0.40200272
   0.66666600  0.33333300  0.40196160
   0.83332029  0.16667871  0.40195922
   0.66657053  0.83328527  0.40201073
   0.83332029  0.66664059  0.40195922
Direct configuration=    45
   0.66795676 -0.00074612  0.16459627
   0.33129612 -0.00074612  0.16459627
   0.00074612  0.33204224  0.16459627
   0.00074612  0.66870288  0.16459627
   0.33129612  0.33204224  0.16459627
   0.66795676  0.66870288  0.16459627
   0.66666600  0.33333300  0.16112701
   0.33333300  0.66666600  0.17732396
   0.16670604  0.33341309  0.40200939
   0.33335440  0.16667670  0.40195306
   0.16670604  0.83329296  0.40200939
   0.33333300  0.66666600  0.40200269
   0.66666600  0.33333300  0.40194801
   0.83332230  0.16667670  0.40195306
   0.66658591  0.83329296  0.40200939
   0.83332230  0.66664460  0.40195306
Direct configuration=    46
   0.66799908 -0.00066240  0.16469205
   0.33133752 -0.00066240  0.16469205
   0.00066240  0.33199992  0.16469205
   0.00066240  0.66866148  0.16469205
   0.33133752  0.33199992  0.16469205
   0.66799908  0.66866148  0.16469205
   0.66666600  0.33333300  0.16085668
   0.33333300  0.66666600  0.17712807
   0.16668297  0.33336695  0.40200536
   0.33334237  0.16667068  0.40193458
   0.16668297  0.83331603  0.40200536
   0.33333300  0.66666600  0.40200261
   0.66666600  0.33333300  0.40190722
   0.83332832  0.16667068  0.40193458
   0.66663205  0.83331603  0.40200536
   0.83332832  0.66665663  0.40193458
Direct configuration=    47
   0.66808373 -0.00049495  0.16488359
   0.33142032 -0.00049495  0.16488359
   0.00049495  0.33191527  0.16488359
   0.00049495  0.66857868  0.16488359
   0.33142032  0.33191527  0.16488359
   0.66808373  0.66857868  0.16488359
   0.66666600  0.33333300  0.16031603
   0.33333300  0.66666600  0.17673628
   0.16663683  0.33327466  0.40199730
   0.33331831  0.16665865  0.40189761
   0.16663683  0.83336217  0.40199730
   0.33333300  0.66666600  0.40200244
   0.66666600  0.33333300  0.40182566