 ----------------------------------------------------
    OOO  PPPP  EEEEE N   N M   M PPPP
   O   O P   P E     NN  N MM MM P   P
   O   O PPPP  EEEEE N N N M M M PPPP   -- VERSION
   O   O P     E     N  NN M   M P
    OOO  P     EEEEE N   N M   M P
 ----------------------------------------------------
 running   48 mpi-ranks, with    1 threads/rank
 distrk:  each k-point on   48 cores,    1 groups
 distr:  one band on    1 cores,   48 groups
 vasp.6.3.2 27Jun22 (build Dec 22 2022 13:13:19) complex                        
  
 POSCAR found type information on POSCAR B C 
 POSCAR found :  2 types and      16 ions
 Reading from existing POTCAR
 -----------------------------------------------------------------------------
|                                                                             |
|           W    W    AA    RRRRR   N    N  II  N    N   GGGG   !!!           |
|           W    W   A  A   R    R  NN   N  II  NN   N  G    G  !!!           |
|           W    W  A    A  R    R  N N  N  II  N N  N  G       !!!           |
|           W WW W  AAAAAA  RRRRR   N  N N  II  N  N N  G  GGG   !            |
|           WW  WW  A    A  R   R   N   NN  II  N   NN  G    G                |
|           W    W  A    A  R    R  N    N  II  N    N   GGGG   !!!           |
|                                                                             |
|     You use a magnetic or noncollinear calculation, but did not specify     |
|     the initial magnetic moment with the MAGMOM tag. Note that a            |
|     default of 1 will be used for all atoms. This ferromagnetic setup       |
|     may break the symmetry of the crystal, in particular it may rule        |
|     out finding an antiferromagnetic solution. Thence, we recommend         |
|     setting the initial magnetic moment manually or verifying carefully     |
|     that this magnetic setup is desired.                                    |
|                                                                             |
 -----------------------------------------------------------------------------

 scaLAPACK will be used
 Reading from existing POTCAR
 LDA part: xc-table for Pade appr. of Perdew
 POSCAR found type information on POSCAR B C 
 POSCAR found :  2 types and      16 ions
 POSCAR, INCAR and KPOINTS ok, starting setup
 FFT: planning ... GRIDC
 FFT: planning ... GRID_SOFT
 FFT: planning ... GRID
 WAVECAR not read
 entering main loop
       N       E                     dE             d eps       ncg     rms          rms(c)
DAV:   1     0.187824657188E+03    0.18782E+03   -0.25335E+04  3648   0.862E+02
DAV:   2    -0.118486702871E+03   -0.30631E+03   -0.30556E+03  5808   0.158E+02
DAV:   3    -0.127839962479E+03   -0.93533E+01   -0.93287E+01  6288   0.366E+01
DAV:   4    -0.127861779087E+03   -0.21817E-01   -0.21815E-01  5760   0.163E+00
DAV:   5    -0.127861810728E+03   -0.31641E-04   -0.31641E-04  5808   0.669E-02    0.227E+01
DAV:   6    -0.945753904133E+02    0.33286E+02   -0.57326E+01  4704   0.216E+01    0.123E+01
DAV:   7    -0.105789950548E+03   -0.11215E+02   -0.14177E+01  5616   0.112E+01    0.670E+00
DAV:   8    -0.111512388695E+03   -0.57224E+01   -0.49108E+00  5472   0.637E+00    0.374E+00
DAV:   9    -0.116825356184E+03   -0.53130E+01   -0.28605E+00  4752   0.473E+00    0.252E+00
DAV:  10    -0.120927175815E+03   -0.41018E+01   -0.31292E+00  5424   0.467E+00    0.135E+00
DAV:  11    -0.122784159584E+03   -0.18570E+01   -0.14465E+00  5184   0.283E+00    0.819E-01
DAV:  12    -0.123758440247E+03   -0.97428E+00   -0.78266E-01  5664   0.193E+00    0.402E-01
DAV:  13    -0.124064687387E+03   -0.30625E+00   -0.18749E-01  5328   0.961E-01    0.194E-01
DAV:  14    -0.124120815109E+03   -0.56128E-01   -0.30703E-02  4464   0.402E-01    0.108E-01
DAV:  15    -0.124144146305E+03   -0.23331E-01   -0.14268E-02  4272   0.291E-01    0.574E-02
DAV:  16    -0.124145722170E+03   -0.15759E-02   -0.21938E-03  4368   0.178E-01    0.372E-02
DAV:  17    -0.124146330762E+03   -0.60859E-03   -0.77885E-04  3936   0.973E-02    0.152E-02
DAV:  18    -0.124146347659E+03   -0.16897E-04   -0.15408E-04  3936   0.456E-02    0.850E-03
DAV:  19    -0.124146395999E+03   -0.48340E-04   -0.39253E-05  3744   0.275E-02    0.506E-03
DAV:  20    -0.124146419538E+03   -0.23539E-04   -0.19239E-05  3936   0.178E-02    0.356E-03
DAV:  21    -0.124146467481E+03   -0.47943E-04   -0.14707E-05  3744   0.151E-02    0.230E-03
DAV:  22    -0.124146491737E+03   -0.24256E-04   -0.50795E-06  4416   0.892E-03    0.136E-03
DAV:  23    -0.124146495991E+03   -0.42542E-05   -0.16371E-06  4896   0.515E-03    0.625E-04
DAV:  24    -0.124146498914E+03   -0.29229E-05   -0.34688E-07  5328   0.228E-03    0.333E-04
DAV:  25    -0.124146500301E+03   -0.13870E-05   -0.16662E-07  4368   0.149E-03    0.175E-04
DAV:  26    -0.124146500629E+03   -0.32782E-06   -0.72517E-08  5712   0.109E-03
   1 F= -.12563352E+03 E0= -.12563049E+03  d E =-.125634E+03  mag=     0.0000
 curvature:   0.00 expect dE= 0.000E+00 dE for cont linesearch  0.000E+00
 trial: gam= 0.00000 g(F)=  0.765E-02 g(S)=  0.000E+00 ort = 0.000E+00 (trialstep = 0.100E+01)
 search vector abs. value=  0.765E-02
 bond charge predicted
       N       E                     dE             d eps       ncg     rms          rms(c)
DAV:   1    -0.124149850774E+03   -0.33505E-02   -0.56972E-01  3840   0.186E+00    0.254E-01
DAV:   2    -0.124147021634E+03    0.28291E-02   -0.13634E-02  5568   0.280E-01    0.112E-01
DAV:   3    -0.124146573631E+03    0.44800E-03   -0.21221E-03  5376   0.983E-02    0.309E-02
DAV:   4    -0.124146557555E+03    0.16076E-04   -0.16178E-04  5280   0.304E-02    0.110E-02
DAV:   5    -0.124146557189E+03    0.36587E-06   -0.77067E-06  5232   0.719E-03
   2 F= -.12563381E+03 E0= -.12563078E+03  d E =-.283246E-03  mag=     0.0000
 trial-energy change:   -0.000283  1 .order   -0.000282   -0.007653    0.007088
 step:   0.5192(harm=  0.5192)  dis= 0.00406  next Energy=  -125.635510 (dE=-0.199E-02)
 bond charge predicted
       N       E                     dE             d eps       ncg     rms          rms(c)
DAV:   1    -0.124149117730E+03   -0.25602E-02   -0.13093E-01  3744   0.894E-01    0.122E-01
DAV:   2    -0.124148467724E+03    0.65001E-03   -0.32010E-03  5376   0.136E-01    0.538E-02
DAV:   3    -0.124148365753E+03    0.10197E-03   -0.51718E-04  4944   0.483E-02    0.147E-02
DAV:   4    -0.124148363011E+03    0.27415E-05   -0.40649E-05  5136   0.151E-02    0.539E-03
DAV:   5    -0.124148363059E+03   -0.47844E-07   -0.19948E-06  5616   0.360E-03
   3 F= -.12563550E+03 E0= -.12563249E+03  d E =-.198118E-02  mag=     0.0000
 curvature:  -0.26 expect dE=-0.135E-04 dE for cont linesearch -0.409E-07
 ZBRENT: interpolating
 opt :   0.5215  next Energy=  -125.635504 (dE=-0.198E-02)
 bond charge predicted
       N       E                     dE             d eps       ncg     rms          rms(c)
DAV:   1    -0.124148362484E+03    0.52759E-06   -0.22048E-06  5424   0.411E-03    0.113E-03
DAV:   2    -0.124148362431E+03    0.52628E-07   -0.21096E-07  5424   0.976E-04
   4 F= -.12563550E+03 E0= -.12563249E+03  d E =-.198108E-02  mag=     0.0000
 curvature:  -0.26 expect dE=-0.136E-04 dE for cont linesearch -0.209E-07
 ZBRENT: interpolating
 opt :   0.5205  next Energy=  -125.635504 (dE=-0.198E-02)
 bond charge predicted
       N       E                     dE             d eps       ncg     rms          rms(c)
DAV:   1    -0.124148362685E+03   -0.20138E-06   -0.72308E-07  4608   0.205E-03    0.344E-04
DAV:   2    -0.124148362694E+03   -0.93082E-08   -0.17233E-08  5184   0.398E-04
   5 F= -.12563550E+03 E0= -.12563249E+03  d E =-.198112E-02  mag=     0.0000
 curvature:  -0.15 expect dE=-0.793E-05 dE for cont linesearch -0.955E-08
 ZBRENT: bisectioning
 opt :   0.5198  next Energy=  -125.635504 (dE=-0.198E-02)
 bond charge predicted
       N       E                     dE             d eps       ncg     rms          rms(c)
DAV:   1    -0.124148362868E+03   -0.18307E-06   -0.25445E-07  4224   0.127E-03    0.236E-04
DAV:   2    -0.124148362874E+03   -0.57180E-08   -0.74171E-09  4656   0.223E-04
   6 F= -.12563550E+03 E0= -.12563249E+03  d E =-.198114E-02  mag=     0.0000
 curvature:  -0.23 expect dE=-0.119E-04 dE for cont linesearch -0.463E-08
 ZBRENT: bisectioning
 opt :   0.5195  next Energy=  -125.635504 (dE=-0.198E-02)
 bond charge predicted
       N       E                     dE             d eps       ncg     rms          rms(c)
DAV:   1    -0.124148362962E+03   -0.93621E-07   -0.55586E-08  4128   0.613E-04    0.124E-04
DAV:   2    -0.124148362965E+03   -0.36812E-08   -0.15056E-09  3600   0.116E-04
   7 F= -.12563550E+03 E0= -.12563249E+03  d E =-.198116E-02  mag=     0.0000
 curvature:  -0.17 expect dE=-0.887E-05 dE for cont linesearch -0.958E-09
 trial: gam= 0.00771 g(F)=  0.524E-04 g(S)=  0.000E+00 ort =-0.658E-05 (trialstep = 0.904E+00)
 search vector abs. value=  0.528E-04
 bond charge predicted
       N       E                     dE             d eps       ncg     rms          rms(c)
DAV:   1    -0.124148368967E+03   -0.60054E-05   -0.42630E-03  3744   0.241E-01    0.116E-02
DAV:   2    -0.124148367980E+03    0.98739E-06   -0.48808E-05  4128   0.274E-02    0.710E-03
DAV:   3    -0.124148367365E+03    0.61530E-06   -0.62916E-06  4176   0.861E-03
   8 F= -.12563555E+03 E0= -.12563253E+03  d E =-.471826E-04  mag=    -0.0000
 ZBRENT: can't locate minimum, use default step
 trial-energy change:   -0.000047  1 .order   -0.000046   -0.000047   -0.000046
 step:   3.6156(harm= 24.3811)  dis= 0.00167  next Energy=  -125.636143 (dE=-0.639E-03)
 bond charge predicted
       N       E                     dE             d eps       ncg     rms          rms(c)
DAV:   1    -0.124148393995E+03   -0.26016E-04   -0.38509E-02  3744   0.724E-01    0.353E-02
DAV:   2    -0.124148384916E+03    0.90797E-05   -0.43700E-04  4128   0.822E-02    0.217E-02
DAV:   3    -0.124148379340E+03    0.55758E-05   -0.57487E-05  4656   0.260E-02    0.525E-03
DAV:   4    -0.124148379757E+03   -0.41696E-06   -0.70099E-06  4128   0.917E-03
   9 F= -.12563569E+03 E0= -.12563267E+03  d E =-.188396E-03  mag=    -0.0000
 curvature:  -2.67 expect dE=-0.154E-03 dE for cont linesearch -0.137E-03
 ZBRENT: increasing intervall
 opt :   9.0390  next Energy=  -125.635983 (dE=-0.479E-03)
 bond charge predicted
       N       E                     dE             d eps       ncg     rms          rms(c)
DAV:   1    -0.124148454867E+03   -0.75527E-04   -0.15356E-01  3648   0.144E+00    0.694E-02
DAV:   2    -0.124148425194E+03    0.29673E-04   -0.17717E-03  4128   0.166E-01    0.426E-02
DAV:   3    -0.124148398907E+03    0.26287E-04   -0.22722E-04  4800   0.515E-02    0.104E-02
DAV:   4    -0.124148400113E+03   -0.12069E-05   -0.26352E-05  4512   0.178E-02    0.448E-03
DAV:   5    -0.124148400729E+03   -0.61591E-06   -0.12767E-06  4128   0.380E-03
  10 F= -.12563597E+03 E0= -.12563295E+03  d E =-.467535E-03  mag=    -0.0000
 curvature:  -5.67 expect dE=-0.490E-03 dE for cont linesearch -0.277E-03
 ZBRENT: increasing intervall
 opt :  19.8858  next Energy=  -125.636509 (dE=-0.100E-02)
 bond charge predicted
       N       E                     dE             d eps       ncg     rms          rms(c)
DAV:   1    -0.124148644545E+03   -0.24443E-03   -0.61406E-01  3648   0.289E+00    0.139E-01
DAV:   2    -0.124148534812E+03    0.10973E-03   -0.71084E-03  4224   0.330E-01    0.853E-02
DAV:   3    -0.124148426478E+03    0.10833E-03   -0.91121E-04  4848   0.103E-01    0.210E-02
DAV:   4    -0.124148429318E+03   -0.28395E-05   -0.10340E-04  5472   0.352E-02    0.898E-03
DAV:   5    -0.124148428369E+03    0.94926E-06   -0.47294E-06  4416   0.700E-03
  11 F= -.12563652E+03 E0= -.12563350E+03  d E =-.101521E-02  mag=    -0.0000
 curvature: -11.01 expect dE=-0.249E-02 dE for cont linesearch -0.502E-03
 ZBRENT: increasing intervall
 opt :  41.5794  next Energy=  -125.637546 (dE=-0.204E-02)
 bond charge predicted
       N       E                     dE             d eps       ncg     rms          rms(c)
DAV:   1    -0.124149323365E+03   -0.89405E-03   -0.24566E+00  3648   0.578E+00    0.278E-01
DAV:   2    -0.124148869522E+03    0.45384E-03   -0.28392E-02  4128   0.661E-01    0.170E-01
DAV:   3    -0.124148445317E+03    0.42421E-03   -0.36580E-03  5088   0.206E-01    0.414E-02
DAV:   4    -0.124148452367E+03   -0.70508E-05   -0.39824E-04  5424   0.697E-02    0.180E-02
DAV:   5    -0.124148447921E+03    0.44468E-05   -0.19881E-05  4800   0.150E-02    0.381E-03
DAV:   6    -0.124148447908E+03    0.12239E-07   -0.41022E-06  4368   0.743E-03
  12 F= -.12563759E+03 E0= -.12563457E+03  d E =-.208842E-02  mag=    -0.0000
 curvature: -22.54 expect dE=-0.187E-01 dE for cont linesearch -0.997E-03
 ZBRENT: increasing intervall
 opt :  84.9666  next Energy=  -125.639658 (dE=-0.415E-02)
 bond charge predicted
       N       E                     dE             d eps       ncg     rms          rms(c)
DAV:   1    -0.124151820640E+03   -0.33727E-02   -0.98194E+00  3648   0.116E+01    0.556E-01
DAV:   2    -0.124150144830E+03    0.16758E-02   -0.11372E-01  4464   0.132E+00    0.341E-01
DAV:   3    -0.124148325572E+03    0.18193E-02   -0.14664E-02  5472   0.408E-01    0.819E-02
DAV:   4    -0.124148336126E+03   -0.10554E-04   -0.15000E-03  5280   0.139E-01    0.367E-02
DAV:   5    -0.124148307477E+03    0.28649E-04   -0.76735E-05  4848   0.289E-02    0.705E-03
DAV:   6    -0.124148306688E+03    0.78837E-06   -0.16684E-05  4464   0.138E-02    0.435E-03
DAV:   7    -0.124148311629E+03   -0.49406E-05   -0.46935E-06  4800   0.878E-03    0.234E-03
DAV:   8    -0.124148326442E+03   -0.14813E-04   -0.41694E-06  4752   0.651E-03    0.189E-03
DAV:   9    -0.124148336004E+03   -0.95620E-05   -0.20186E-06  4752   0.553E-03    0.913E-04
DAV:  10    -0.124148347884E+03   -0.11880E-04   -0.45072E-06  4512   0.871E-03    0.599E-04
DAV:  11    -0.124148351122E+03   -0.32375E-05   -0.30729E-06  4608   0.767E-03    0.537E-04
DAV:  12    -0.124148355035E+03   -0.39131E-05   -0.11320E-06  4128   0.395E-03    0.209E-04
DAV:  13    -0.124148355342E+03   -0.30724E-06   -0.22943E-07  5712   0.199E-03
  13 F= -.12563966E+03 E0= -.12563664E+03  d E =-.415738E-02  mag=     0.0000
 curvature: -46.68 expect dE=-0.155E+00 dE for cont linesearch -0.182E-02
 ZBRENT: increasing intervall
 opt : 171.7411  next Energy=  -125.643333 (dE=-0.783E-02)
 bond charge predicted
       N       E                     dE             d eps       ncg     rms          rms(c)
DAV:   1    -0.124160355162E+03   -0.12000E-01   -0.39208E+01  3648   0.231E+01    0.111E+00
DAV:   2    -0.124154573839E+03    0.57813E-02   -0.46086E-01  4032   0.267E+00    0.684E-01
DAV:   3    -0.124147356075E+03    0.72178E-02   -0.58745E-02  6144   0.819E-01    0.168E-01
DAV:   4    -0.124147387028E+03   -0.30952E-04   -0.52805E-03  5520   0.261E-01    0.750E-02
DAV:   5    -0.124147293343E+03    0.93684E-04   -0.29038E-04  4800   0.525E-02    0.144E-02
DAV:   6    -0.124147281525E+03    0.11818E-04   -0.62105E-05  5616   0.209E-02    0.690E-03
DAV:   7    -0.124147302425E+03   -0.20900E-04   -0.10681E-05  4800   0.888E-03    0.407E-03
DAV:   8    -0.124147319199E+03   -0.16775E-04   -0.21329E-06  4848   0.358E-03    0.352E-03
DAV:   9    -0.124147339462E+03   -0.20263E-04   -0.19279E-06  4848   0.287E-03    0.140E-03
DAV:  10    -0.124147359437E+03   -0.19975E-04   -0.22690E-06  4704   0.291E-03    0.108E-03
DAV:  11    -0.124147370087E+03   -0.10650E-04   -0.13999E-06  4320   0.301E-03    0.516E-04
DAV:  12    -0.124147375200E+03   -0.51130E-05   -0.98470E-07  4800   0.324E-03    0.222E-04
DAV:  13    -0.124147376048E+03   -0.84782E-06   -0.31164E-07  4752   0.226E-03
  14 F= -.12564323E+03 E0= -.12564021E+03  d E =-.772671E-02  mag=    -0.0000
 curvature: -94.36 expect dE=-0.126E+01 dE for cont linesearch -0.249E-02
 ZBRENT: increasing intervall
 opt : 345.2900  next Energy=  -125.648327 (dE=-0.128E-01)
 bond charge predicted
       N       E                     dE             d eps       ncg     rms          rms(c)
DAV:   1    -0.124187093101E+03   -0.39718E-01   -0.15597E+02  3648   0.460E+01    0.220E+00
DAV:   2    -0.124171227019E+03    0.15866E-01   -0.19019E+00  4032   0.547E+00    0.137E+00
DAV:   3    -0.124142629354E+03    0.28598E-01   -0.22900E-01  6096   0.162E+00    0.353E-01
DAV:   4    -0.124142856651E+03   -0.22730E-03   -0.20026E-02  5472   0.506E-01    0.155E-01
DAV:   5    -0.124142390776E+03    0.46587E-03   -0.12638E-03  5664   0.101E-01    0.310E-02
DAV:   6    -0.124142342711E+03    0.48065E-04   -0.22117E-04  5328   0.394E-02    0.145E-02
DAV:   7    -0.124142394191E+03   -0.51480E-04   -0.42787E-05  4416   0.185E-02    0.839E-03
DAV:   8    -0.124142434913E+03   -0.40722E-04   -0.99380E-06  4704   0.864E-03    0.762E-03
DAV:   9    -0.124142490033E+03   -0.55120E-04   -0.86984E-06  5136   0.677E-03    0.270E-03
DAV:  10    -0.124142531418E+03   -0.41386E-04   -0.57396E-06  4704   0.557E-03    0.189E-03
DAV:  11    -0.124142552668E+03   -0.21249E-04   -0.34787E-06  4752   0.589E-03    0.133E-03
DAV:  12    -0.124142563421E+03   -0.10753E-04   -0.24329E-06  4704   0.538E-03    0.548E-04
DAV:  13    -0.124142568343E+03   -0.49221E-05   -0.94123E-07  4944   0.336E-03    0.206E-04
DAV:  14    -0.124142569643E+03   -0.13001E-05   -0.28497E-07  4704   0.207E-03    0.103E-04
DAV:  15    -0.124142569877E+03   -0.23421E-06   -0.57655E-08  5712   0.965E-04
  15 F= -.12564850E+03 E0= -.12564548E+03  d E =-.129957E-01  mag=     0.0000
 curvature: ****** expect dE=-0.103E+02 dE for cont linesearch -0.196E-02
 ZBRENT: increasing intervall
 opt : 692.3878  next Energy=  -125.651603 (dE=-0.161E-01)
 bond charge predicted
       N       E                     dE             d eps       ncg     rms          rms(c)
DAV:   1    -0.124209805661E+03   -0.67236E-01   -0.61040E+02  3648   0.907E+01    0.432E+00
DAV:   2    -0.124237593660E+03   -0.27788E-01   -0.83199E+00  3840   0.117E+01    0.276E+00
DAV:   3    -0.124120620039E+03    0.11697E+00   -0.80522E-01  6240   0.308E+00    0.867E-01
DAV:   4    -0.124122717764E+03   -0.20977E-02   -0.66435E-02  5712   0.943E-01    0.316E-01
DAV:   5    -0.124121023974E+03    0.16938E-02   -0.67193E-03  5664   0.206E-01    0.558E-02
DAV:   6    -0.124120852521E+03    0.17145E-03   -0.61585E-04  5904   0.693E-02    0.281E-02
DAV:   7    -0.124121002331E+03   -0.14981E-03   -0.23371E-04  4224   0.432E-02    0.159E-02
DAV:   8    -0.124121108511E+03   -0.10618E-03   -0.30408E-05  4512   0.135E-02    0.144E-02
DAV:   9    -0.124121209343E+03   -0.10083E-03   -0.20597E-05  4752   0.107E-02    0.637E-03
DAV:  10    -0.124121288153E+03   -0.78810E-04   -0.14291E-05  4848   0.881E-03    0.396E-03
DAV:  11    -0.124121341446E+03   -0.53292E-04   -0.11585E-05  4944   0.685E-03    0.223E-03
DAV:  12    -0.124121353629E+03   -0.12183E-04   -0.13510E-06  4944   0.280E-03    0.905E-04
DAV:  13    -0.124121358698E+03   -0.50695E-05   -0.36040E-07  5040   0.154E-03    0.394E-04
DAV:  14    -0.124121361854E+03   -0.31555E-05   -0.19043E-07  4752   0.968E-04    0.187E-04
DAV:  15    -0.124121363639E+03   -0.17851E-05   -0.13875E-07  4560   0.692E-04    0.795E-05
DAV:  16    -0.124121363889E+03   -0.24974E-06   -0.14287E-08  5472   0.341E-04
  16 F= -.12565205E+03 E0= -.12564902E+03  d E =-.165430E-01  mag=     0.0000
 curvature: ****** expect dE=-0.648E+02 dE for cont linesearch -0.341E-04
 trial: gam=******** g(F)=  0.212E+00 g(S)=  0.000E+00 ort =-0.243E-05 (trialstep = 0.852E-05)
 search vector abs. value=  0.863E+03
 bond charge predicted
       N       E                     dE             d eps       ncg     rms          rms(c)
DAV:   1    -0.124121362846E+03    0.79238E-06   -0.62067E-06  5616   0.918E-03    0.445E-04
DAV:   2    -0.124121362847E+03   -0.78626E-09   -0.65724E-08  6096   0.101E-03
  17 F= -.12565205E+03 E0= -.12564903E+03  d E =-.177301E-05  mag=     0.0000
 ZBRENT: can't locate minimum, use default step
 trial-energy change:   -0.000002  1 .order   -0.000002   -0.000002   -0.000002
 step:   0.0000(harm=  0.0000)  dis= 0.00006  next Energy=  -125.652054 (dE=-0.693E-05)
 bond charge predicted
       N       E                     dE             d eps       ncg     rms          rms(c)
DAV:   1    -0.124121359597E+03    0.32495E-05   -0.54818E-05  4512   0.274E-02    0.136E-03
DAV:   2    -0.124121359578E+03    0.19044E-07   -0.57820E-07  5568   0.296E-03
  18 F= -.12565205E+03 E0= -.12564903E+03  d E =-.694713E-05  mag=     0.0000
 curvature:  -0.11 expect dE=-0.231E-01 dE for cont linesearch -0.525E-05
 ZBRENT: increasing intervall
 opt :   0.0001  next Energy=  -125.652065 (dE=-0.174E-04)
 bond charge predicted
       N       E                     dE             d eps       ncg     rms          rms(c)
DAV:   1    -0.124121353097E+03    0.65003E-05   -0.21755E-04  3888   0.547E-02    0.276E-03
DAV:   2    -0.124121353024E+03    0.73072E-07   -0.23543E-06  4416   0.606E-03
  19 F= -.12565206E+03 E0= -.12564904E+03  d E =-.172819E-04  mag=    -0.0000
 curvature:  -0.22 expect dE=-0.461E-01 dE for cont linesearch -0.105E-04
 ZBRENT: increasing intervall
 opt :   0.0002  next Energy=  -125.652085 (dE=-0.383E-04)
 bond charge predicted
       N       E                     dE             d eps       ncg     rms          rms(c)
DAV:   1    -0.124121340191E+03    0.12905E-04   -0.87119E-04  3744   0.109E-01    0.554E-03
DAV:   2    -0.124121339916E+03    0.27477E-06   -0.96496E-06  4512   0.123E-02
  20 F= -.12565209E+03 E0= -.12564906E+03  d E =-.379612E-04  mag=     0.0000
 curvature:  -0.43 expect dE=-0.918E-01 dE for cont linesearch -0.215E-04
 ZBRENT: increasing intervall
 opt :   0.0004  next Energy=  -125.652128 (dE=-0.808E-04)
 bond charge predicted
       N       E                     dE             d eps       ncg     rms          rms(c)
DAV:   1    -0.124121314746E+03    0.25445E-04   -0.34835E-03  3648   0.219E-01    0.111E-02
DAV:   2    -0.124121313756E+03    0.99000E-06   -0.38909E-05  4128   0.248E-02    0.686E-03
DAV:   3    -0.124121313464E+03    0.29200E-06   -0.51507E-06  4512   0.784E-03
  21 F= -.12565213E+03 E0= -.12564910E+03  d E =-.791208E-04  mag=     0.0000
 curvature:  -0.86 expect dE=-0.183E+00 dE for cont linesearch -0.382E-04
 ZBRENT: increasing intervall
 opt :   0.0008  next Energy=  -125.652202 (dE=-0.154E-03)
 bond charge predicted
       N       E                     dE             d eps       ncg     rms          rms(c)
DAV:   1    -0.124121265818E+03    0.47939E-04   -0.14333E-02  3648   0.441E-01    0.217E-02
DAV:   2    -0.124121262026E+03    0.37919E-05   -0.16359E-04  4032   0.506E-02    0.134E-02
DAV:   3    -0.124121260313E+03    0.17124E-05   -0.21172E-05  4512   0.158E-02    0.327E-03
DAV:   4    -0.124121260630E+03   -0.31637E-06   -0.28975E-06  3888   0.599E-03
  22 F= -.12565221E+03 E0= -.12564919E+03  d E =-.161632E-03  mag=    -0.0000
 curvature:  -1.70 expect dE=-0.361E+00 dE for cont linesearch -0.805E-04
 ZBRENT: increasing intervall
 opt :   0.0016  next Energy=  -125.652379 (dE=-0.332E-03)
 bond charge predicted
       N       E                     dE             d eps       ncg     rms          rms(c)
DAV:   1    -0.124121175141E+03    0.85173E-04   -0.57044E-02  3648   0.881E-01    0.423E-02
DAV:   2    -0.124121161945E+03    0.13196E-04   -0.65660E-04  3888   0.101E-01    0.260E-02
DAV:   3    -0.124121153363E+03    0.85817E-05   -0.85617E-05  5232   0.316E-02    0.639E-03
DAV:   4    -0.124121154317E+03   -0.95384E-06   -0.10124E-05  3888   0.119E-02    0.274E-03
DAV:   5    -0.124121155024E+03   -0.70656E-06   -0.18354E-06  3744   0.613E-03
  23 F= -.12565237E+03 E0= -.12564935E+03  d E =-.327245E-03  mag=    -0.0000
 curvature:  -3.60 expect dE=-0.769E+00 dE for cont linesearch -0.169E-03
 ZBRENT: increasing intervall
 opt :   0.0033  next Energy=  -125.652701 (dE=-0.654E-03)
 bond charge predicted
       N       E                     dE             d eps       ncg     rms          rms(c)
DAV:   1    -0.124121023212E+03    0.13111E-03   -0.22807E-01  3648   0.176E+00    0.845E-02
DAV:   2    -0.124120977672E+03    0.45540E-04   -0.26211E-03  3648   0.202E-01    0.521E-02
DAV:   3    -0.124120938845E+03    0.38827E-04   -0.34978E-04  4896   0.644E-02    0.127E-02
DAV:   4    -0.124120940524E+03   -0.16795E-05   -0.40419E-05  4560   0.228E-02    0.547E-03
DAV:   5    -0.124120941789E+03   -0.12646E-05   -0.43106E-06  3648   0.905E-03    0.148E-03
DAV:   6    -0.124120940721E+03    0.10679E-05   -0.19774E-06  4320   0.630E-03    0.758E-04
DAV:   7    -0.124120941109E+03   -0.38830E-06   -0.42064E-07  4128   0.256E-03
  24 F= -.12565271E+03 E0= -.12564968E+03  d E =-.657880E-03  mag=    -0.0000
 curvature:  -6.98 expect dE=-0.150E+01 dE for cont linesearch -0.341E-03
 ZBRENT: increasing intervall
 opt :   0.0065  next Energy=  -125.653390 (dE=-0.134E-02)
 bond charge predicted
       N       E                     dE             d eps       ncg     rms          rms(c)
DAV:   1    -0.124120848137E+03    0.92584E-04   -0.91185E-01  3648   0.352E+00    0.169E-01
DAV:   2    -0.124120664112E+03    0.18403E-03   -0.10434E-02  3648   0.403E-01    0.104E-01
DAV:   3    -0.124120503896E+03    0.16022E-03   -0.13716E-03  3840   0.128E-01    0.259E-02
DAV:   4    -0.124120510731E+03   -0.68347E-05   -0.18719E-04  5664   0.464E-02    0.106E-02
DAV:   5    -0.124120511090E+03   -0.35872E-06   -0.69304E-06  4080   0.963E-03
  25 F= -.12565337E+03 E0= -.12565035E+03  d E =-.132552E-02  mag=     0.0000
 curvature: -14.03 expect dE=-0.306E+01 dE for cont linesearch -0.633E-03
 ZBRENT: increasing intervall
 opt :   0.0131  next Energy=  -125.654611 (dE=-0.256E-02)
 bond charge predicted
       N       E                     dE             d eps       ncg     rms          rms(c)
DAV:   1    -0.124120929500E+03   -0.41877E-03   -0.36493E+00  3648   0.705E+00    0.338E-01
DAV:   2    -0.124120268276E+03    0.66122E-03   -0.42182E-02  4032   0.808E-01    0.207E-01
DAV:   3    -0.124119625797E+03    0.64248E-03   -0.53733E-03  4368   0.250E-01    0.510E-02
DAV:   4    -0.124119638913E+03   -0.13117E-04   -0.64125E-04  6048   0.885E-02    0.217E-02
DAV:   5    -0.124119635816E+03    0.30967E-05   -0.33705E-05  4176   0.219E-02    0.443E-03
DAV:   6    -0.124119635459E+03    0.35703E-06   -0.19849E-05  4704   0.190E-02    0.270E-03
DAV:   7    -0.124119634910E+03    0.54968E-06   -0.90531E-06  4176   0.132E-02
  26 F= -.12565473E+03 E0= -.12565170E+03  d E =-.267899E-02  mag=    -0.0000
 curvature: -27.45 expect dE=-0.617E+01 dE for cont linesearch -0.146E-02
 ZBRENT: increasing intervall
 opt :   0.0261  next Energy=  -125.657746 (dE=-0.570E-02)
 bond charge predicted
       N       E                     dE             d eps       ncg     rms          rms(c)
DAV:   1    -0.124123054836E+03   -0.34194E-02   -0.14580E+01  3648   0.141E+01    0.677E-01
DAV:   2    -0.124120460364E+03    0.25945E-02   -0.16884E-01  4416   0.162E+00    0.415E-01
DAV:   3    -0.124117817567E+03    0.26428E-02   -0.21371E-02  5184   0.492E-01    0.101E-01
DAV:   4    -0.124117855602E+03   -0.38035E-04   -0.22500E-03  6000   0.168E-01    0.445E-02
DAV:   5    -0.124117823962E+03    0.31640E-04   -0.10627E-04  5040   0.343E-02    0.850E-03
DAV:   6    -0.124117823603E+03    0.35829E-06   -0.34658E-05  5088   0.215E-02    0.439E-03
DAV:   7    -0.124117837382E+03   -0.13779E-04   -0.25921E-05  4080   0.226E-02    0.257E-03
DAV:   8    -0.124117840158E+03   -0.27765E-05   -0.15623E-05  4608   0.172E-02    0.217E-03
DAV:   9    -0.124117850872E+03   -0.10714E-04   -0.37382E-06  5232   0.777E-03    0.101E-03
DAV:  10    -0.124117859116E+03   -0.82433E-05   -0.26555E-06  4800   0.651E-03    0.677E-04
DAV:  11    -0.124117864187E+03   -0.50719E-05   -0.98629E-07  5184   0.365E-03    0.604E-04
DAV:  12    -0.124117867088E+03   -0.29010E-05   -0.26960E-07  4752   0.158E-03    0.266E-04
DAV:  13    -0.124117868727E+03   -0.16386E-05   -0.12503E-07  4704   0.766E-04    0.793E-05
DAV:  14    -0.124117869245E+03   -0.51805E-06   -0.29865E-08  4656   0.314E-04
  27 F= -.12565756E+03 E0= -.12565454E+03  d E =-.551430E-02  mag=    -0.0000
 curvature: -56.85 expect dE=-0.135E+02 dE for cont linesearch -0.316E-02
 ZBRENT: increasing intervall
 opt :   0.0523  next Energy=  -125.663418 (dE=-0.114E-01)
 bond charge predicted
       N       E                     dE             d eps       ncg     rms          rms(c)
DAV:   1    -0.124132618058E+03   -0.14749E-01   -0.58187E+01  3648   0.281E+01    0.135E+00
DAV:   2    -0.124124094685E+03    0.85234E-02   -0.68936E-01  3840   0.328E+00    0.836E-01
DAV:   3    -0.124113926612E+03    0.10168E-01   -0.89157E-02  5952   0.101E+00    0.206E-01
DAV:   4    -0.124114023704E+03   -0.97092E-04   -0.79956E-03  6144   0.316E-01    0.933E-02
DAV:   5    -0.124113910282E+03    0.11342E-03   -0.43494E-04  5472   0.641E-02    0.190E-02
DAV:   6    -0.124113896720E+03    0.13563E-04   -0.93487E-05  5904   0.260E-02    0.826E-03
DAV:   7    -0.124113927073E+03   -0.30354E-04   -0.14803E-05  4224   0.112E-02    0.492E-03
DAV:   8    -0.124113949953E+03   -0.22879E-04   -0.23595E-06  5088   0.364E-03    0.381E-03
DAV:   9    -0.124113974610E+03   -0.24657E-04   -0.28378E-06  4800   0.346E-03    0.138E-03
DAV:  10    -0.124113992500E+03   -0.17891E-04   -0.20914E-06  4944   0.266E-03    0.122E-03
DAV:  11    -0.124114002288E+03   -0.97877E-05   -0.10768E-06  4800   0.196E-03    0.667E-04
DAV:  12    -0.124114006576E+03   -0.42885E-05   -0.35028E-07  5088   0.126E-03    0.238E-04
DAV:  13    -0.124114008149E+03   -0.15723E-05   -0.96070E-08  4992   0.708E-04    0.102E-04
DAV:  14    -0.124114009023E+03   -0.87433E-06   -0.52386E-08  4608   0.424E-04
  28 F= -.12566350E+03 E0= -.12566047E+03  d E =-.114506E-01  mag=     0.0000
 curvature: ****** expect dE=-0.280E+02 dE for cont linesearch -0.680E-02
 ZBRENT: increasing intervall
 opt :   0.1046  next Energy=  -125.676740 (dE=-0.247E-01)
 bond charge predicted
       N       E                     dE             d eps       ncg     rms          rms(c)
DAV:   1    -0.124164393223E+03   -0.50385E-01   -0.23085E+02  3648   0.560E+01    0.267E+00
DAV:   2    -0.124146368445E+03    0.18025E-01   -0.28780E+00  3840   0.678E+00    0.168E+00
DAV:   3    -0.124104675635E+03    0.41693E-01   -0.33692E-01  5952   0.197E+00    0.456E-01
DAV:   4    -0.124105512701E+03   -0.83707E-03   -0.28531E-02  5952   0.600E-01    0.193E-01
DAV:   5    -0.124104918234E+03    0.59447E-03   -0.20300E-03  6048   0.122E-01    0.395E-02
DAV:   6    -0.124104867109E+03    0.51125E-04   -0.30956E-04  5280   0.485E-02    0.173E-02
DAV:   7    -0.124104959774E+03   -0.92666E-04   -0.79611E-05  3888   0.265E-02    0.107E-02
DAV:   8    -0.124105015771E+03   -0.55997E-04   -0.93944E-06  4800   0.827E-03    0.817E-03
DAV:   9    -0.124105071875E+03   -0.56103E-04   -0.87875E-06  4752   0.681E-03    0.303E-03
DAV:  10    -0.124105111221E+03   -0.39346E-04   -0.62034E-06  5088   0.500E-03    0.230E-03
DAV:  11    -0.124105133647E+03   -0.22426E-04   -0.34738E-06  5328   0.358E-03    0.159E-03
DAV:  12    -0.124105141076E+03   -0.74283E-05   -0.73806E-07  5184   0.191E-03    0.466E-04
DAV:  13    -0.124105143745E+03   -0.26692E-05   -0.13645E-07  5088   0.857E-04    0.233E-04
DAV:  14    -0.124105145169E+03   -0.14243E-05   -0.60617E-08  5088   0.522E-04    0.115E-04
DAV:  15    -0.124105146154E+03   -0.98487E-06   -0.61298E-08  4512   0.401E-04
  29 F= -.12567684E+03 E0= -.12567381E+03  d E =-.247947E-01  mag=    -0.0000
 curvature: ****** expect dE=-0.666E+02 dE for cont linesearch -0.180E-01
 ZBRENT: increasing intervall
 opt :   0.2093  next Energy=  -125.709722 (dE=-0.577E-01)
 bond charge predicted
       N       E                     dE             d eps       ncg     rms          rms(c)
DAV:   1    -0.124145388783E+03   -0.40244E-01   -0.89390E+02  3648   0.109E+02    0.522E+00
DAV:   2    -0.124259360974E+03   -0.11397E+00   -0.13003E+01  4224   0.148E+01    0.337E+00
DAV:   3    -0.124082771057E+03    0.17659E+00   -0.10581E+00  6096   0.353E+00    0.117E+00
DAV:   4    -0.124083149364E+03   -0.37831E-03   -0.10073E-01  6096   0.116E+00    0.374E-01
DAV:   5    -0.124080788971E+03    0.23604E-02   -0.11562E-02  5856   0.272E-01    0.633E-02
DAV:   6    -0.124080623211E+03    0.16576E-03   -0.71186E-04  6144   0.788E-02    0.311E-02
DAV:   7    -0.124080840365E+03   -0.21715E-03   -0.28811E-04  4032   0.500E-02    0.188E-02
DAV:   8    -0.124080962796E+03   -0.12243E-03   -0.41869E-05  4704   0.160E-02    0.162E-02
DAV:   9    -0.124081087983E+03   -0.12519E-03   -0.36464E-05  4416   0.147E-02    0.692E-03
DAV:  10    -0.124081169832E+03   -0.81849E-04   -0.18778E-05  4800   0.103E-02    0.565E-03
DAV:  11    -0.124081212940E+03   -0.43108E-04   -0.11753E-05  5088   0.738E-03    0.272E-03
DAV:  12    -0.124081223617E+03   -0.10677E-04   -0.11850E-06  6288   0.289E-03    0.137E-03
DAV:  13    -0.124081232245E+03   -0.86278E-05   -0.89564E-07  5568   0.218E-03    0.667E-04
DAV:  14    -0.124081235112E+03   -0.28673E-05   -0.13530E-07  5376   0.851E-04    0.333E-04
DAV:  15    -0.124081236748E+03   -0.16365E-05   -0.78824E-08  4848   0.573E-04    0.131E-04
DAV:  16    -0.124081237286E+03   -0.53713E-06   -0.19008E-08  5664   0.263E-04
  30 F= -.12570986E+03 E0= -.12570681E+03  d E =-.578119E-01  mag=    -0.0000
 curvature: ****** expect dE=-0.173E+03 dE for cont linesearch -0.541E-01
 ZBRENT: increasing intervall
 opt :   0.4186  next Energy=  -125.799929 (dE=-0.148E+00)
 bond charge predicted
       N       E                     dE             d eps       ncg     rms          rms(c)
DAV:   1    -0.122442298539E+03    0.16389E+01   -0.31404E+03  3648   0.197E+02    0.103E+01
DAV:   2    -0.124710410837E+03   -0.22681E+01   -0.64417E+01  3648   0.341E+01    0.664E+00
DAV:   3    -0.124112144438E+03    0.59827E+00   -0.28511E+00  6432   0.620E+00    0.367E+00
DAV:   4    -0.123966030129E+03    0.14611E+00   -0.80879E-01  5856   0.305E+00    0.687E-01
DAV:   5    -0.123964169255E+03    0.18609E-02   -0.39562E-02  4896   0.695E-01    0.253E-01
DAV:   6    -0.123961134893E+03    0.30344E-02   -0.10390E-02  6432   0.277E-01    0.743E-02
DAV:   7    -0.123960915368E+03    0.21952E-03   -0.12923E-03  5184   0.110E-01    0.364E-02
DAV:   8    -0.123961301567E+03   -0.38620E-03   -0.60787E-04  5088   0.609E-02    0.287E-02
DAV:   9    -0.123961483117E+03   -0.18155E-03   -0.16825E-04  4416   0.360E-02    0.167E-02
DAV:  10    -0.123961560659E+03   -0.77542E-04   -0.31320E-05  5376   0.134E-02    0.147E-02
DAV:  11    -0.123961594556E+03   -0.33897E-04   -0.17907E-05  4512   0.104E-02    0.514E-03
DAV:  12    -0.123961612906E+03   -0.18350E-04   -0.74967E-06  5088   0.686E-03    0.476E-03
DAV:  13    -0.123961623614E+03   -0.10708E-04   -0.20517E-06  4944   0.407E-03    0.131E-03
DAV:  14    -0.123961627667E+03   -0.40525E-05   -0.35707E-07  5616   0.156E-03    0.497E-04
DAV:  15    -0.123961629297E+03   -0.16306E-05   -0.91233E-08  5472   0.768E-04    0.286E-04
DAV:  16    -0.123961630257E+03   -0.95986E-06   -0.56218E-08  4560   0.505E-04
  31 F= -.12576988E+03 E0= -.12576722E+03  d E =-.117835E+00  mag=     0.0000
 curvature: ****** expect dE=-0.500E+03 dE for cont linesearch -0.895E-03
 trial: gam= 1.84095 g(F)=  0.801E+00 g(S)=  0.000E+00 ort =-0.352E-01 (trialstep = 0.247E-01)
 search vector abs. value=  0.292E+04
 bond charge predicted
       N       E                     dE             d eps       ncg     rms          rms(c)
DAV:   1    -0.123969592391E+03   -0.79631E-02   -0.17489E+02  3648   0.490E+01    0.234E+00
DAV:   2    -0.123949785528E+03    0.19807E-01   -0.21747E+00  5088   0.587E+00    0.145E+00
DAV:   3    -0.123918695608E+03    0.31090E-01   -0.22533E-01  6336   0.160E+00    0.400E-01
DAV:   4    -0.123918731357E+03   -0.35749E-04   -0.22142E-02  5952   0.526E-01    0.156E-01
DAV:   5    -0.123918313467E+03    0.41789E-03   -0.14135E-03  6720   0.112E-01    0.327E-02
DAV:   6    -0.123918273113E+03    0.40354E-04   -0.21037E-04  5088   0.430E-02    0.139E-02
DAV:   7    -0.123918328875E+03   -0.55761E-04   -0.63222E-05  5184   0.247E-02    0.864E-03
DAV:   8    -0.123918373599E+03   -0.44724E-04   -0.13013E-05  4992   0.982E-03    0.700E-03
DAV:   9    -0.123918408990E+03   -0.35392E-04   -0.55554E-06  5088   0.592E-03    0.328E-03
DAV:  10    -0.123918442122E+03   -0.33132E-04   -0.68586E-06  5184   0.544E-03    0.188E-03
DAV:  11    -0.123918456953E+03   -0.14831E-04   -0.27667E-06  5664   0.335E-03    0.114E-03
DAV:  12    -0.123918461615E+03   -0.46616E-05   -0.61141E-07  6192   0.172E-03    0.598E-04
DAV:  13    -0.123918463289E+03   -0.16742E-05   -0.13695E-07  5328   0.109E-03    0.298E-04
DAV:  14    -0.123918464209E+03   -0.92022E-06   -0.79435E-08  5328   0.775E-04
  32 F= -.12577870E+03 E0= -.12577600E+03  d E =-.881795E-02  mag=    -0.0000
 trial-energy change:   -0.008818  1 .order   -0.007752   -0.018187    0.002682
 step:   0.0222(harm=  0.0215)  dis= 0.07602  next Energy=  -125.778834 (dE=-0.895E-02)
 bond charge predicted
       N       E                     dE             d eps       ncg     rms          rms(c)
DAV:   1    -0.123924688480E+03   -0.62252E-02   -0.17910E+00  3648   0.497E+00    0.238E-01
DAV:   2    -0.123924302154E+03    0.38633E-03   -0.20859E-02  5472   0.570E-01    0.145E-01
DAV:   3    -0.123924012603E+03    0.28955E-03   -0.24742E-03  6048   0.167E-01    0.365E-02
DAV:   4    -0.123924020271E+03   -0.76681E-05   -0.26083E-04  4800   0.576E-02    0.154E-02
DAV:   5    -0.123924020695E+03   -0.42395E-06   -0.13571E-05  5568   0.130E-02    0.293E-03
DAV:   6    -0.123924020296E+03    0.39966E-06   -0.20028E-06  5280   0.438E-03
  33 F= -.12577883E+03 E0= -.12577613E+03  d E =-.894447E-02  mag=    -0.0000
 curvature: -40.75 expect dE=-0.309E+02 dE for cont linesearch -0.381E-07
 trial: gam=-0.02635 g(F)=  0.758E+00 g(S)=  0.000E+00 ort =-0.165E-02 (trialstep = 0.242E-01)
 search vector abs. value=  0.279E+01
 bond charge predicted
       N       E                     dE             d eps       ncg     rms          rms(c)
DAV:   1    -0.123942918214E+03   -0.18898E-01   -0.16308E-01  3648   0.157E+00    0.708E-02
DAV:   2    -0.123942920250E+03   -0.20360E-05   -0.21672E-03  6528   0.188E-01    0.458E-02
DAV:   3    -0.123942895024E+03    0.25225E-04   -0.24138E-04  5616   0.546E-02    0.164E-02
DAV:   4    -0.123942895589E+03   -0.56509E-06   -0.48289E-05  4560   0.241E-02    0.103E-02
DAV:   5    -0.123942896658E+03   -0.10687E-05   -0.22742E-06  4800   0.637E-03    0.372E-03
DAV:   6    -0.123942897516E+03   -0.85811E-06   -0.10021E-06  5616   0.353E-03
  34 F= -.12579643E+03 E0= -.12579374E+03  d E =-.176049E-01  mag=    -0.0000
 ZBRENT: can't locate minimum, use default step
 trial-energy change:   -0.017605  1 .order   -0.017603   -0.018343   -0.016863
 step:   0.0968(harm=  0.3000)  dis= 0.00960  next Energy=  -125.892527 (dE=-0.114E+00)
 bond charge predicted
       N       E                     dE             d eps       ncg     rms          rms(c)
DAV:   1    -0.123990862116E+03   -0.47965E-01   -0.14678E+00  3648   0.471E+00    0.212E-01
DAV:   2    -0.123990892487E+03   -0.30371E-04   -0.19464E-02  6720   0.561E-01    0.137E-01
DAV:   3    -0.123990666282E+03    0.22620E-03   -0.21409E-03  5856   0.162E-01    0.493E-02
DAV:   4    -0.123990662574E+03    0.37080E-05   -0.42319E-04  4800   0.715E-02    0.309E-02
DAV:   5    -0.123990664695E+03   -0.21202E-05   -0.19441E-05  4992   0.185E-02    0.111E-02
DAV:   6    -0.123990664912E+03   -0.21763E-06   -0.84359E-06  5856   0.982E-03
  35 F= -.12584033E+03 E0= -.12583764E+03  d E =-.615042E-01  mag=     0.0000
 curvature:  -0.25 expect dE=-0.876E-01 dE for cont linesearch -0.237E-01
 ZBRENT: increasing intervall
 opt :   0.2420  next Energy=  -125.887840 (dE=-0.109E+00)
 bond charge predicted
       N       E                     dE             d eps       ncg     rms          rms(c)
DAV:   1    -0.124046571726E+03   -0.55907E-01   -0.58749E+00  3648   0.943E+00    0.427E-01
DAV:   2    -0.124046749298E+03   -0.17757E-03   -0.78732E-02  6720   0.113E+00    0.276E-01
DAV:   3    -0.124045757843E+03    0.99145E-03   -0.85449E-03  5952   0.326E-01    0.993E-02
DAV:   4    -0.124045733496E+03    0.24347E-04   -0.16857E-03  4944   0.144E-01    0.624E-02
DAV:   5    -0.124045738576E+03   -0.50806E-05   -0.75757E-05  5184   0.367E-02    0.222E-02
DAV:   6    -0.124045737855E+03    0.72109E-06   -0.34118E-05  5184   0.199E-02    0.764E-03
DAV:   7    -0.124045739224E+03   -0.13691E-05   -0.33052E-06  4800   0.719E-03    0.411E-03
DAV:   8    -0.124045742344E+03   -0.31197E-05   -0.14331E-06  4944   0.430E-03    0.137E-03
DAV:   9    -0.124045744798E+03   -0.24541E-05   -0.33946E-07  4512   0.230E-03    0.168E-03
DAV:  10    -0.124045748646E+03   -0.38480E-05   -0.20013E-07  5952   0.125E-03    0.912E-04
DAV:  11    -0.124045753556E+03   -0.49100E-05   -0.33274E-07  5328   0.148E-03    0.450E-04
DAV:  12    -0.124045754865E+03   -0.13084E-05   -0.29700E-08  5808   0.632E-04    0.301E-04
DAV:  13    -0.124045756744E+03   -0.18798E-05   -0.51759E-08  5184   0.665E-04    0.102E-04
DAV:  14    -0.124045757353E+03   -0.60814E-06   -0.19910E-08  6096   0.502E-04
  36 F= -.12588747E+03 E0= -.12588478E+03  d E =-.108646E+00  mag=     0.0000
 curvature:  -0.51 expect dE=-0.154E-01 dE for cont linesearch -0.332E-02
 ZBRENT: extrapolating
 opt :   0.2941  next Energy=  -125.891001 (dE=-0.112E+00)
 bond charge predicted
       N       E                     dE             d eps       ncg     rms          rms(c)
DAV:   1    -0.124052246909E+03   -0.64902E-02   -0.75832E-01  3648   0.339E+00    0.154E-01
DAV:   2    -0.124052255186E+03   -0.82778E-05   -0.10279E-02  5664   0.408E-01    0.998E-02
DAV:   3    -0.124052142078E+03    0.11311E-03   -0.11897E-03  6144   0.122E-01    0.373E-02
DAV:   4    -0.124052139997E+03    0.20814E-05   -0.23261E-04  4512   0.534E-02    0.237E-02
DAV:   5    -0.124052142016E+03   -0.20190E-05   -0.11365E-05  4992   0.144E-02    0.786E-03
DAV:   6    -0.124052141962E+03    0.54057E-07   -0.43598E-06  5472   0.723E-03
  37 F= -.12589094E+03 E0= -.12588825E+03  d E =-.112110E+00  mag=    -0.0000
 curvature:  -0.54 expect dE=-0.480E-02 dE for cont linesearch -0.149E-05
 ZBRENT: bracketing found
 ZBRENT: interpolating
 opt :   0.2931  next Energy=  -125.890938 (dE=-0.112E+00)
 bond charge predicted
       N       E                     dE             d eps       ncg     rms          rms(c)
DAV:   1    -0.124052084278E+03    0.57738E-04   -0.30362E-04  4224   0.682E-02    0.378E-03
DAV:   2    -0.124052084394E+03   -0.11637E-06   -0.45645E-06  5952   0.852E-03
  38 F= -.12589094E+03 E0= -.12588825E+03  d E =-.112111E+00  mag=     0.0000
 curvature:  -0.53 expect dE=-0.466E-02 dE for cont linesearch -0.101E-08
 trial: gam= 0.01089 g(F)=  0.885E-02 g(S)=  0.000E+00 ort =-0.732E-04 (trialstep = 0.780E-01)
 search vector abs. value=  0.918E-02
 bond charge predicted
       N       E                     dE             d eps       ncg     rms          rms(c)
DAV:   1    -0.124052803804E+03   -0.71953E-03   -0.53065E-03  3648   0.281E-01    0.128E-02
DAV:   2    -0.124052803748E+03    0.56154E-07   -0.47182E-05  6288   0.282E-02    0.761E-03
DAV:   3    -0.124052803665E+03    0.83016E-07   -0.49333E-06  3744   0.781E-03
  39 F= -.12589161E+03 E0= -.12588892E+03  d E =-.675160E-03  mag=    -0.0000
 ZBRENT: can't locate minimum, use default step
 trial-energy change:   -0.000675  1 .order   -0.000674   -0.000690   -0.000657
 step:   0.3119(harm=  1.6329)  dis= 0.00328  next Energy=  -125.898164 (dE=-0.723E-02)
 bond charge predicted
       N       E                     dE             d eps       ncg     rms          rms(c)
DAV:   1    -0.124054774203E+03   -0.19705E-02   -0.47705E-02  3648   0.844E-01    0.390E-02
DAV:   2    -0.124054771562E+03    0.26416E-05   -0.40842E-04  6528   0.830E-02    0.233E-02
DAV:   3    -0.124054767796E+03    0.37660E-05   -0.44542E-05  4080   0.234E-02    0.597E-03
DAV:   4    -0.124054768505E+03   -0.70929E-06   -0.61554E-06  5760   0.902E-03
  40 F= -.12589345E+03 E0= -.12589075E+03  d E =-.250786E-02  mag=     0.0000
 curvature:  -0.24 expect dE=-0.150E-02 dE for cont linesearch -0.134E-02
 ZBRENT: increasing intervall
 opt :   0.7798  next Energy=  -125.896251 (dE=-0.531E-02)
 bond charge predicted
       N       E                     dE             d eps       ncg     rms          rms(c)
DAV:   1    -0.124057861081E+03   -0.30933E-02   -0.19067E-01  3648   0.169E+00    0.775E-02
DAV:   2    -0.124057856875E+03    0.42057E-05   -0.16232E-03  6912   0.165E-01    0.461E-02
DAV:   3    -0.124057834062E+03    0.22813E-04   -0.17522E-04  4512   0.462E-02    0.119E-02
DAV:   4    -0.124057835886E+03   -0.18233E-05   -0.23901E-05  6384   0.177E-02    0.549E-03
DAV:   5    -0.124057836779E+03   -0.89315E-06   -0.53717E-07  4608   0.318E-03
  41 F= -.12589625E+03 E0= -.12589354E+03  d E =-.531263E-02  mag=     0.0000
 curvature:  -0.50 expect dE=-0.273E-02 dE for cont linesearch -0.122E-02
 ZBRENT: increasing intervall
 opt :   1.7155  next Energy=  -125.898416 (dE=-0.748E-02)
 bond charge predicted
       N       E                     dE             d eps       ncg     rms          rms(c)
DAV:   1    -0.124060647453E+03   -0.28116E-02   -0.76305E-01  3648   0.337E+00    0.155E-01
DAV:   2    -0.124060624606E+03    0.22847E-04   -0.64431E-03  7296   0.330E-01    0.919E-02
DAV:   3    -0.124060524792E+03    0.99814E-04   -0.71313E-04  4800   0.925E-02    0.234E-02
DAV:   4    -0.124060529463E+03   -0.46712E-05   -0.92939E-05  5904   0.351E-02    0.109E-02
DAV:   5    -0.124060532133E+03   -0.26696E-05   -0.24329E-06  5280   0.671E-03    0.452E-03
DAV:   6    -0.124060532777E+03   -0.64493E-06   -0.85116E-07  4992   0.357E-03
  42 F= -.12589842E+03 E0= -.12589569E+03  d E =-.748538E-02  mag=     0.0000
 curvature:  -0.88 expect dE=-0.126E-01 dE for cont linesearch -0.127E-05
 trial: gam= 1.63110 g(F)=  0.143E-01 g(S)=  0.000E+00 ort =-0.115E-03 (trialstep = 0.970E-01)
 search vector abs. value=  0.384E-01
 bond charge predicted
       N       E                     dE             d eps       ncg     rms          rms(c)
DAV:   1    -0.124061835199E+03   -0.13031E-02   -0.32124E-02  3648   0.706E-01    0.326E-02
DAV:   2    -0.124061836620E+03   -0.14204E-05   -0.32087E-04  6528   0.728E-02    0.203E-02
DAV:   3    -0.124061833436E+03    0.31839E-05   -0.36001E-05  3984   0.210E-02    0.646E-03
DAV:   4    -0.124061833792E+03   -0.35614E-06   -0.75069E-06  5760   0.951E-03
  43 F= -.12589966E+03 E0= -.12589693E+03  d E =-.123884E-02  mag=     0.0000
 ZBRENT: can't locate minimum, use default step
 trial-energy change:   -0.001239  1 .order   -0.001241   -0.001372   -0.001110
 step:   0.3880(harm=  0.5074)  dis= 0.00730  next Energy=  -125.902011 (dE=-0.359E-02)
 bond charge predicted
       N       E                     dE             d eps       ncg     rms          rms(c)
DAV:   1    -0.124064187806E+03   -0.23544E-02   -0.28888E-01  3648   0.212E+00    0.982E-02
DAV:   2    -0.124064210780E+03   -0.22974E-04   -0.28762E-03  7296   0.217E-01    0.611E-02
DAV:   3    -0.124064172288E+03    0.38492E-04   -0.30809E-04  4176   0.611E-02    0.193E-02
DAV:   4    -0.124064173451E+03   -0.11634E-05   -0.62761E-05  6336   0.262E-02    0.103E-02
DAV:   5    -0.124064175046E+03   -0.15950E-05   -0.22730E-06  4512   0.666E-03    0.396E-03
DAV:   6    -0.124064175378E+03   -0.33168E-06   -0.65175E-07  5040   0.359E-03
  44 F= -.12590181E+03 E0= -.12589911E+03  d E =-.339071E-02  mag=    -0.0000
 curvature:  -0.63 expect dE=-0.170E-02 dE for cont linesearch -0.181E-03
 ZBRENT: extrapolating
 opt :   0.5071  next Energy=  -125.902012 (dE=-0.359E-02)
 bond charge predicted
       N       E                     dE             d eps       ncg     rms          rms(c)
DAV:   1    -0.124064455682E+03   -0.28064E-03   -0.48458E-02  3648   0.867E-01    0.399E-02
DAV:   2    -0.124064458369E+03   -0.26863E-05   -0.48570E-04  6816   0.896E-02    0.249E-02
DAV:   3    -0.124064453467E+03    0.49016E-05   -0.53485E-05  3840   0.256E-02    0.791E-03
DAV:   4    -0.124064453810E+03   -0.34258E-06   -0.11030E-05  5952   0.114E-02    0.422E-03
DAV:   5    -0.124064454219E+03   -0.40907E-06   -0.49597E-07  4032   0.348E-03
  45 F= -.12590201E+03 E0= -.12589932E+03  d E =-.359011E-02  mag=    -0.0000
 curvature:  -0.69 expect dE=-0.214E-02 dE for cont linesearch -0.892E-10
 trial: gam= 0.19921 g(F)=  0.311E-02 g(S)=  0.000E+00 ort = 0.223E-05 (trialstep = 0.179E+00)
 search vector abs. value=  0.463E-02
 bond charge predicted
       N       E                     dE             d eps       ncg     rms          rms(c)
DAV:   1    -0.124064969237E+03   -0.51543E-03   -0.73075E-03  3648   0.295E-01    0.225E-02
DAV:   2    -0.124064956112E+03    0.13125E-04   -0.11081E-04  7104   0.365E-02    0.113E-02
DAV:   3    -0.124064953172E+03    0.29398E-05   -0.15445E-05  4176   0.119E-02    0.324E-03
DAV:   4    -0.124064953245E+03   -0.72756E-07   -0.20217E-06  4320   0.598E-03
  46 F= -.12590252E+03 E0= -.12589985E+03  d E =-.508347E-03  mag=    -0.0000
 ZBRENT: can't locate minimum, use default step
 trial-energy change:   -0.000508  1 .order   -0.000508   -0.000556   -0.000460
 step:   0.7160(harm=  1.0422)  dis= 0.00215  next Energy=  -125.903632 (dE=-0.162E-02)
 bond charge predicted
       N       E                     dE             d eps       ncg     rms          rms(c)
DAV:   1    -0.124066017304E+03   -0.10641E-02   -0.65739E-02  3648   0.885E-01    0.678E-02
DAV:   2    -0.124065899504E+03    0.11780E-03   -0.98821E-04  7008   0.108E-01    0.339E-02
DAV:   3    -0.124065872340E+03    0.27165E-04   -0.13515E-04  5280   0.342E-02    0.983E-03
DAV:   4    -0.124065872029E+03    0.31099E-06   -0.13436E-05  4032   0.135E-02    0.371E-03
DAV:   5    -0.124065872114E+03   -0.84665E-07   -0.11918E-06  4224   0.532E-03
  47 F= -.12590347E+03 E0= -.12590085E+03  d E =-.145453E-02  mag=     0.0000
 curvature:  -0.67 expect dE=-0.122E-02 dE for cont linesearch -0.129E-03
 ZBRENT: increasing intervall
 opt :   1.7901  next Energy=  -125.902737 (dE=-0.723E-03)
 bond charge predicted
       N       E                     dE             d eps       ncg     rms          rms(c)
DAV:   1    -0.124065658127E+03    0.21390E-03   -0.26353E-01  3648   0.177E+00    0.135E-01
DAV:   2    -0.124065183412E+03    0.47472E-03   -0.39970E-03  7152   0.217E-01    0.673E-02
DAV:   3    -0.124065076914E+03    0.10650E-03   -0.52198E-04  5136   0.672E-02    0.199E-02
DAV:   4    -0.124065075230E+03    0.16840E-05   -0.53528E-05  5088   0.266E-02    0.734E-03
DAV:   5    -0.124065075427E+03   -0.19698E-06   -0.43070E-06  3840   0.101E-02
  48 F= -.12590272E+03 E0= -.12590022E+03  d E =-.709415E-03  mag=    -0.0000
 curvature:   3.79 expect dE= 0.439E-01 dE for cont linesearch  0.455E-02
 ZBRENT: bracketing found
 ZBRENT: interpolating
 opt :   1.0235  next Energy=  -125.903613 (dE=-0.160E-02)
 bond charge predicted
       N       E                     dE             d eps       ncg     rms          rms(c)
DAV:   1    -0.124066301410E+03   -0.12262E-02   -0.13408E-01  3648   0.126E+00    0.963E-02
DAV:   2    -0.124066059824E+03    0.24159E-03   -0.20616E-03  6096   0.156E-01    0.480E-02
DAV:   3    -0.124066007159E+03    0.52665E-04   -0.28615E-04  4608   0.516E-02    0.142E-02
DAV:   4    -0.124066008608E+03   -0.14491E-05   -0.38252E-05  4032   0.258E-02    0.551E-03
DAV:   5    -0.124066007428E+03    0.11803E-05   -0.10975E-05  3648   0.161E-02    0.244E-03
DAV:   6    -0.124066006993E+03    0.43428E-06   -0.79361E-06  3744   0.133E-02
  49 F= -.12590362E+03 E0= -.12590104E+03  d E =-.160458E-02  mag=     0.0000
 curvature:  -0.12 expect dE=-0.382E-03 dE for cont linesearch -0.721E-08
 trial: gam= 1.01346 g(F)=  0.316E-02 g(S)=  0.000E+00 ort = 0.166E-04 (trialstep = 0.203E+00)
 search vector abs. value=  0.795E-02
 bond charge predicted
       N       E                     dE             d eps       ncg     rms          rms(c)
DAV:   1    -0.124066600854E+03   -0.59343E-03   -0.13630E-02  3648   0.425E-01    0.229E-02
DAV:   2    -0.124066596531E+03    0.43228E-05   -0.10435E-04  4944   0.375E-02    0.131E-02
DAV:   3    -0.124066595114E+03    0.14170E-05   -0.10866E-05  4560   0.102E-02    0.374E-03
DAV:   4    -0.124066595309E+03   -0.19500E-06   -0.12905E-06  5088   0.382E-03
  50 F= -.12590423E+03 E0= -.12590165E+03  d E =-.610144E-03  mag=     0.0000
 ZBRENT: can't locate minimum, use default step
 trial-energy change:   -0.000610  1 .order   -0.000613   -0.000644   -0.000582
 step:   0.8104(harm=  2.0935)  dis= 0.00325  next Energy=  -125.906944 (dE=-0.333E-02)
 bond charge predicted
       N       E                     dE             d eps       ncg     rms          rms(c)
DAV:   1    -0.124068045740E+03   -0.14506E-02   -0.12269E-01  3648   0.127E+00    0.691E-02
DAV:   2    -0.124068007151E+03    0.38589E-04   -0.92159E-04  6144   0.111E-01    0.390E-02
DAV:   3    -0.124067992671E+03    0.14480E-04   -0.88377E-05  4848   0.289E-02    0.112E-02
DAV:   4    -0.124067993654E+03   -0.98297E-06   -0.10382E-05  5088   0.108E-02    0.329E-03
DAV:   5    -0.124067993898E+03   -0.24476E-06   -0.46067E-07  5280   0.304E-03
  51 F= -.12590569E+03 E0= -.12590313E+03  d E =-.207446E-02  mag=     0.0000
 curvature:  -1.41 expect dE=-0.272E-02 dE for cont linesearch -0.675E-03
 ZBRENT: increasing intervall
 opt :   2.0260  next Energy=  -125.906941 (dE=-0.332E-02)
 bond charge predicted
       N       E                     dE             d eps       ncg     rms          rms(c)
DAV:   1    -0.124069325653E+03   -0.13320E-02   -0.49101E-01  3648   0.255E+00    0.138E-01
DAV:   2    -0.124069173047E+03    0.15261E-03   -0.36820E-03  5952   0.222E-01    0.778E-02
DAV:   3    -0.124069112275E+03    0.60771E-04   -0.36095E-04  5184   0.582E-02    0.222E-02
DAV:   4    -0.124069115154E+03   -0.28784E-05   -0.41100E-05  4704   0.216E-02    0.659E-03
DAV:   5    -0.124069115909E+03   -0.75587E-06   -0.22028E-06  5472   0.681E-03
  52 F= -.12590695E+03 E0= -.12590441E+03  d E =-.333003E-02  mag=    -0.0000
 curvature:  -2.61 expect dE=-0.122E-01 dE for cont linesearch -0.507E-05
 trial: gam= 1.43551 g(F)=  0.468E-02 g(S)=  0.000E+00 ort = 0.124E-03 (trialstep = 0.211E+00)
 search vector abs. value=  0.214E-01
 bond charge predicted
       N       E                     dE             d eps       ncg     rms          rms(c)
DAV:   1    -0.124069947795E+03   -0.83264E-03   -0.43811E-02  3648   0.784E-01    0.466E-02
DAV:   2    -0.124069912559E+03    0.35237E-04   -0.47926E-04  6816   0.800E-02    0.249E-02
DAV:   3    -0.124069903630E+03    0.89284E-05   -0.52269E-05  4656   0.231E-02    0.788E-03
DAV:   4    -0.124069904166E+03   -0.53625E-06   -0.77045E-06  4416   0.118E-02
  53 F= -.12590778E+03 E0= -.12590523E+03  d E =-.828944E-03  mag=    -0.0000
 trial-energy change:   -0.000829  1 .order   -0.000829   -0.001023   -0.000635
 step:   0.5556(harm=  0.5556)  dis= 0.00350  next Energy=  -125.908297 (dE=-0.135E-02)
 bond charge predicted
       N       E                     dE             d eps       ncg     rms          rms(c)
DAV:   1    -0.124070476462E+03   -0.57283E-03   -0.11734E-01  3648   0.128E+00    0.764E-02
DAV:   2    -0.124070384443E+03    0.92019E-04   -0.12621E-03  6912   0.130E-01    0.409E-02
DAV:   3    -0.124070359695E+03    0.24748E-04   -0.13627E-04  4848   0.365E-02    0.128E-02
DAV:   4    -0.124070360343E+03   -0.64790E-06   -0.17385E-05  4800   0.165E-02    0.467E-03
DAV:   5    -0.124070360557E+03   -0.21379E-06   -0.26002E-06  4464   0.798E-03
  54 F= -.12590830E+03 E0= -.12590574E+03  d E =-.135130E-02  mag=     0.0000
 curvature:  -1.23 expect dE=-0.322E-03 dE for cont linesearch -0.122E-07
 trial: gam= 0.11854 g(F)=  0.263E-03 g(S)=  0.000E+00 ort = 0.146E-04 (trialstep = 0.280E+00)
 search vector abs. value=  0.568E-03
 bond charge predicted
       N       E                     dE             d eps       ncg     rms          rms(c)
DAV:   1    -0.124070372666E+03   -0.12323E-04   -0.26236E-03  3984   0.218E-01    0.107E-02
DAV:   2    -0.124070371277E+03    0.13896E-05   -0.36988E-05  3888   0.267E-02    0.612E-03
DAV:   3    -0.124070371740E+03   -0.46280E-06   -0.66827E-06  3840   0.118E-02
  55 F= -.12590835E+03 E0= -.12590578E+03  d E =-.488076E-04  mag=    -0.0000
 trial-energy change:   -0.000049  1 .order   -0.000047   -0.000074   -0.000020
 step:   0.3842(harm=  0.3842)  dis= 0.00041  next Energy=  -125.908350 (dE=-0.509E-04)
 bond charge predicted
       N       E                     dE             d eps       ncg     rms          rms(c)
DAV:   1    -0.124070361544E+03    0.97332E-05   -0.37446E-04  3936   0.829E-02    0.508E-03
DAV:   2    -0.124070361301E+03    0.24225E-06   -0.60844E-06  4416   0.116E-02
  56 F= -.12590835E+03 E0= -.12590578E+03  d E =-.523792E-04  mag=    -0.0000
 curvature:  -0.41 expect dE=-0.242E-04 dE for cont linesearch -0.437E-07
 trial: gam= 0.20714 g(F)=  0.588E-04 g(S)=  0.000E+00 ort = 0.776E-05 (trialstep = 0.300E+00)
 search vector abs. value=  0.863E-04
 bond charge predicted
       N       E                     dE             d eps       ncg     rms          rms(c)
DAV:   1    -0.124070335006E+03    0.26537E-04   -0.57927E-04  3984   0.952E-02    0.563E-03
DAV:   2    -0.124070334106E+03    0.90036E-06   -0.83726E-06  3936   0.123E-02
  57 F= -.12590837E+03 E0= -.12590580E+03  d E =-.163699E-04  mag=    -0.0000
 ZBRENT: can't locate minimum, use default step
 trial-energy change:   -0.000016  1 .order   -0.000016   -0.000018   -0.000015
 step:   1.2020(harm=  1.4976)  dis= 0.00057  next Energy=  -125.908397 (dE=-0.452E-04)
 bond charge predicted
       N       E                     dE             d eps       ncg     rms          rms(c)
DAV:   1    -0.124070231501E+03    0.10351E-03   -0.51618E-03  3648   0.284E-01    0.161E-02
DAV:   2    -0.124070226758E+03    0.47426E-05   -0.60405E-05  4896   0.300E-02    0.866E-03
DAV:   3    -0.124070226529E+03    0.22908E-06   -0.74068E-06  4704   0.109E-02
  58 F= -.12590839E+03 E0= -.12590583E+03  d E =-.395348E-04  mag=     0.0000
 curvature:  -1.01 expect dE=-0.657E-04 dE for cont linesearch -0.105E-06
 trial: gam= 1.09670 g(F)=  0.654E-04 g(S)=  0.000E+00 ort = 0.300E-05 (trialstep = 0.236E+00)
 search vector abs. value=  0.176E-03
 bond charge predicted
       N       E                     dE             d eps       ncg     rms          rms(c)
DAV:   1    -0.124070178754E+03    0.48004E-04   -0.78286E-04  3648   0.111E-01    0.589E-03
DAV:   2    -0.124070177808E+03    0.94548E-06   -0.97587E-06  3648   0.150E-02
  59 F= -.12590840E+03 E0= -.12590584E+03  d E =-.133744E-04  mag=     0.0000
 trial-energy change:   -0.000013  1 .order   -0.000014   -0.000016   -0.000011
 step:   0.7088(harm=  0.7088)  dis= 0.00051  next Energy=  -125.908416 (dE=-0.243E-04)
 bond charge predicted
       N       E                     dE             d eps       ncg     rms          rms(c)
DAV:   1    -0.124070064925E+03    0.11383E-03   -0.30958E-03  3648   0.221E-01    0.118E-02
DAV:   2    -0.124070062750E+03    0.21750E-05   -0.32180E-05  5040   0.250E-02    0.701E-03
DAV:   3    -0.124070063276E+03   -0.52593E-06   -0.61537E-06  4560   0.115E-02
  60 F= -.12590841E+03 E0= -.12590586E+03  d E =-.230735E-04  mag=    -0.0000
 curvature:  -0.91 expect dE=-0.457E-04 dE for cont linesearch -0.278E-06
 trial: gam= 0.96683 g(F)=  0.504E-04 g(S)=  0.000E+00 ort =-0.734E-05 (trialstep = 0.290E+00)
 search vector abs. value=  0.201E-03
 bond charge predicted
       N       E                     dE             d eps       ncg     rms          rms(c)
DAV:   1    -0.124069972394E+03    0.90356E-04   -0.12941E-03  3648   0.139E-01    0.755E-03
DAV:   2    -0.124069970589E+03    0.18054E-05   -0.18046E-05  3840   0.198E-02    0.439E-03
DAV:   3    -0.124069972127E+03   -0.15383E-05   -0.65662E-06  4416   0.123E-02    0.154E-03
DAV:   4    -0.124069970637E+03    0.14896E-05   -0.50942E-06  3984   0.109E-02    0.807E-04
DAV:   5    -0.124069969839E+03    0.79773E-06   -0.96248E-07  4464   0.462E-03
  61 F= -.12590842E+03 E0= -.12590587E+03  d E =-.958423E-05  mag=     0.0000
 trial-energy change:   -0.000010  1 .order   -0.000010   -0.000013   -0.000008
 step:   0.8815(harm=  0.8815)  dis= 0.00077  next Energy=  -125.908433 (dE=-0.191E-04)
 bond charge predicted
       N       E                     dE             d eps       ncg     rms          rms(c)
DAV:   1    -0.124069770818E+03    0.19982E-03   -0.53526E-03  3648   0.282E-01    0.144E-02
DAV:   2    -0.124069767671E+03    0.31465E-05   -0.55957E-05  4416   0.296E-02    0.818E-03
DAV:   3    -0.124069767079E+03    0.59223E-06   -0.76866E-06  5232   0.931E-03
  62 F= -.12590843E+03 E0= -.12590588E+03  d E =-.171304E-04  mag=    -0.0000
 curvature:  -2.04 expect dE=-0.124E-03 dE for cont linesearch -0.270E-06
 trial: gam= 0.93432 g(F)=  0.605E-04 g(S)=  0.000E+00 ort =-0.516E-05 (trialstep = 0.362E+00)
 search vector abs. value=  0.226E-03
 bond charge predicted
       N       E                     dE             d eps       ncg     rms          rms(c)
DAV:   1    -0.124069630020E+03    0.13765E-03   -0.23120E-03  3744   0.184E-01    0.104E-02
DAV:   2    -0.124069628149E+03    0.18708E-05   -0.30169E-05  3840   0.213E-02    0.586E-03
DAV:   3    -0.124069627950E+03    0.19968E-06   -0.36584E-06  4608   0.668E-03
  63 F= -.12590845E+03 E0= -.12590589E+03  d E =-.163687E-04  mag=     0.0000
 trial-energy change:   -0.000016  1 .order   -0.000016   -0.000020   -0.000011
 step:   0.8058(harm=  0.8058)  dis= 0.00078  next Energy=  -125.908454 (dE=-0.225E-04)
 bond charge predicted
       N       E                     dE             d eps       ncg     rms          rms(c)
DAV:   1    -0.124069448564E+03    0.17959E-03   -0.34593E-03  3648   0.225E-01    0.127E-02
DAV:   2    -0.124069445644E+03    0.29201E-05   -0.45988E-05  4128   0.262E-02    0.707E-03
DAV:   3    -0.124069445236E+03    0.40865E-06   -0.55032E-06  4800   0.814E-03
  64 F= -.12590846E+03 E0= -.12590590E+03  d E =-.241174E-04  mag=    -0.0000
 curvature:  -1.63 expect dE=-0.817E-04 dE for cont linesearch -0.145E-09
 trial: gam= 0.80360 g(F)=  0.500E-04 g(S)=  0.000E+00 ort = 0.142E-06 (trialstep = 0.451E+00)
 search vector abs. value=  0.196E-03
 bond charge predicted
       N       E                     dE             d eps       ncg     rms          rms(c)
DAV:   1    -0.124069265114E+03    0.18053E-03   -0.34286E-03  3744   0.225E-01    0.114E-02
DAV:   2    -0.124069264094E+03    0.10196E-05   -0.38725E-05  3840   0.252E-02    0.686E-03
DAV:   3    -0.124069263774E+03    0.32049E-06   -0.54586E-06  4800   0.830E-03
  65 F= -.12590847E+03 E0= -.12590592E+03  d E =-.176201E-04  mag=     0.0000
 trial-energy change:   -0.000018  1 .order   -0.000017   -0.000023   -0.000011
 step:   0.8620(harm=  0.8620)  dis= 0.00076  next Energy=  -125.908477 (dE=-0.216E-04)
 bond charge predicted
       N       E                     dE             d eps       ncg     rms          rms(c)
DAV:   1    -0.124069089657E+03    0.17444E-03   -0.28666E-03  3696   0.205E-01    0.107E-02
DAV:   2    -0.124069088885E+03    0.77241E-06   -0.32662E-05  3840   0.233E-02    0.645E-03
DAV:   3    -0.124069088630E+03    0.25510E-06   -0.46664E-06  4224   0.779E-03
  66 F= -.12590848E+03 E0= -.12590593E+03  d E =-.239558E-04  mag=    -0.0000
 curvature:  -1.69 expect dE=-0.106E-03 dE for cont linesearch -0.133E-07
 trial: gam= 1.30588 g(F)=  0.630E-04 g(S)=  0.000E+00 ort = 0.125E-05 (trialstep = 0.261E+00)
 search vector abs. value=  0.401E-03
 bond charge predicted
       N       E                     dE             d eps       ncg     rms          rms(c)
DAV:   1    -0.124068931828E+03    0.15706E-03   -0.24509E-03  3792   0.187E-01    0.981E-03
DAV:   2    -0.124068930677E+03    0.11508E-05   -0.26502E-05  3888   0.207E-02    0.579E-03
DAV:   3    -0.124068930444E+03    0.23250E-06   -0.38499E-06  4176   0.692E-03
  67 F= -.12590850E+03 E0= -.12590595E+03  d E =-.155884E-04  mag=     0.0000
 trial-energy change:   -0.000016  1 .order   -0.000015   -0.000017   -0.000013
 step:   1.0133(harm=  1.0133)  dis= 0.00124  next Energy=  -125.908512 (dE=-0.328E-04)
 bond charge predicted
       N       E                     dE             d eps       ncg     rms          rms(c)
DAV:   1    -0.124068461859E+03    0.46882E-03   -0.20264E-02  3648   0.537E-01    0.274E-02
DAV:   2    -0.124068452549E+03    0.93105E-05   -0.22318E-04  3936   0.598E-02    0.161E-02
DAV:   3    -0.124068450140E+03    0.24084E-05   -0.32051E-05  4608   0.195E-02    0.416E-03
DAV:   4    -0.124068450423E+03   -0.28316E-06   -0.42301E-06  4608   0.755E-03
  68 F= -.12590852E+03 E0= -.12590598E+03  d E =-.367860E-04  mag=     0.0000
 curvature:  -3.14 expect dE=-0.153E-03 dE for cont linesearch -0.193E-06
 trial: gam= 0.84858 g(F)=  0.488E-04 g(S)=  0.000E+00 ort = 0.496E-05 (trialstep = 0.411E+00)
 search vector abs. value=  0.346E-03
 bond charge predicted
       N       E                     dE             d eps       ncg     rms          rms(c)
DAV:   1    -0.124068204676E+03    0.24546E-03   -0.54316E-03  3648   0.277E-01    0.138E-02
DAV:   2    -0.124068202801E+03    0.18756E-05   -0.63318E-05  3936   0.321E-02    0.828E-03
DAV:   3    -0.124068202260E+03    0.54093E-06   -0.81005E-06  4176   0.104E-02
  69 F= -.12590853E+03 E0= -.12590600E+03  d E =-.183444E-04  mag=    -0.0000
 trial-energy change:   -0.000018  1 .order   -0.000017   -0.000022   -0.000013
 step:   0.9954(harm=  0.9954)  dis= 0.00115  next Energy=  -125.908543 (dE=-0.264E-04)
 bond charge predicted
       N       E                     dE             d eps       ncg     rms          rms(c)
DAV:   1    -0.124067843379E+03    0.35942E-03   -0.10999E-02  3840   0.394E-01    0.202E-02
DAV:   2    -0.124067838704E+03    0.46753E-05   -0.12231E-04  4080   0.445E-02    0.119E-02
DAV:   3    -0.124067837602E+03    0.11021E-05   -0.16372E-05  4368   0.146E-02    0.331E-03
DAV:   4    -0.124067837811E+03   -0.20898E-06   -0.28859E-06  4032   0.710E-03
  70 F= -.12590855E+03 E0= -.12590602E+03  d E =-.323841E-04  mag=    -0.0000
 curvature:  -3.25 expect dE=-0.152E-03 dE for cont linesearch -0.121E-05
 ZBRENT: increasing intervall
 opt :   2.1634  next Energy=  -125.908539 (dE=-0.226E-04)
 bond charge predicted
       N       E                     dE             d eps       ncg     rms          rms(c)
DAV:   1    -0.124067086745E+03    0.75086E-03   -0.43713E-02  3648   0.786E-01    0.392E-02
DAV:   2    -0.124067069939E+03    0.16806E-04   -0.49821E-04  4128   0.893E-02    0.231E-02
DAV:   3    -0.124067064024E+03    0.59152E-05   -0.63502E-05  4416   0.281E-02    0.641E-03
DAV:   4    -0.124067064722E+03   -0.69812E-06   -0.97124E-06  4224   0.118E-02
  71 F= -.12590853E+03 E0= -.12590601E+03  d E =-.169342E-04  mag=    -0.0000
 curvature:  26.26 expect dE= 0.658E-02 dE for cont linesearch  0.107E-03
 ZBRENT: bracketing found
 ZBRENT: interpolating
 opt :   1.2667  next Energy=  -125.908550 (dE=-0.339E-04)
 bond charge predicted
       N       E                     dE             d eps       ncg     rms          rms(c)
DAV:   1    -0.124067677085E+03   -0.61306E-03   -0.25727E-02  3648   0.603E-01    0.296E-02
DAV:   2    -0.124067666996E+03    0.10089E-04   -0.30214E-04  4608   0.694E-02    0.175E-02
DAV:   3    -0.124067663750E+03    0.32461E-05   -0.37784E-05  5232   0.218E-02    0.486E-03
DAV:   4    -0.124067664385E+03   -0.63504E-06   -0.62952E-06  3936   0.114E-02
  72 F= -.12590855E+03 E0= -.12590602E+03  d E =-.348657E-04  mag=    -0.0000
 curvature:  -0.38 expect dE=-0.286E-04 dE for cont linesearch -0.187E-12
 trial: gam= 1.64068 g(F)=  0.756E-04 g(S)=  0.000E+00 ort =-0.131E-07 (trialstep = 0.200E+00)
 search vector abs. value=  0.101E-02
 bond charge predicted
       N       E                     dE             d eps       ncg     rms          rms(c)
DAV:   1    -0.124067450333E+03    0.21342E-03   -0.37788E-03  3648   0.231E-01    0.106E-02
DAV:   2    -0.124067449160E+03    0.11733E-05   -0.46685E-05  3936   0.283E-02    0.663E-03
DAV:   3    -0.124067448958E+03    0.20197E-06   -0.70146E-06  4512   0.108E-02
  73 F= -.12590856E+03 E0= -.12590604E+03  d E =-.127371E-04  mag=     0.0000
 trial-energy change:   -0.000013  1 .order   -0.000012   -0.000015   -0.000009
 step:   0.5319(harm=  0.5319)  dis= 0.00128  next Energy=  -125.908571 (dE=-0.201E-04)
 bond charge predicted
       N       E                     dE             d eps       ncg     rms          rms(c)
DAV:   1    -0.124067086445E+03    0.36272E-03   -0.10465E-02  3648   0.384E-01    0.189E-02
DAV:   2    -0.124067083431E+03    0.30136E-05   -0.11969E-04  3648   0.453E-02    0.117E-02
DAV:   3    -0.124067082817E+03    0.61430E-06   -0.18013E-05  4176   0.167E-02    0.331E-03
DAV:   4    -0.124067083175E+03   -0.35841E-06   -0.51567E-06  3648   0.110E-02
  74 F= -.12590858E+03 E0= -.12590605E+03  d E =-.253105E-04  mag=     0.0000
 curvature:  -3.54 expect dE=-0.151E-03 dE for cont linesearch -0.114E-05
 ZBRENT: increasing intervall
 opt :   1.1954  next Energy=  -125.908569 (dE=-0.179E-04)
 bond charge predicted
       N       E                     dE             d eps       ncg     rms          rms(c)
DAV:   1    -0.124066329872E+03    0.75294E-03   -0.41674E-02  3648   0.766E-01    0.372E-02
DAV:   2    -0.124066318728E+03    0.11144E-04   -0.46782E-04  3744   0.877E-02    0.228E-02
DAV:   3    -0.124066313562E+03    0.51664E-05   -0.65572E-05  4464   0.289E-02    0.617E-03
DAV:   4    -0.124066314166E+03   -0.60392E-06   -0.10530E-05  3984   0.130E-02    0.298E-03
DAV:   5    -0.124066314288E+03   -0.12199E-06   -0.17121E-06  4560   0.662E-03
  75 F= -.12590856E+03 E0= -.12590605E+03  d E =-.137295E-04  mag=    -0.0000
 curvature:  23.10 expect dE= 0.462E-02 dE for cont linesearch  0.627E-04
 ZBRENT: bracketing found
 ZBRENT: interpolating
 opt :   0.7017  next Energy=  -125.908578 (dE=-0.268E-04)
 bond charge predicted
       N       E                     dE             d eps       ncg     rms          rms(c)
DAV:   1    -0.124066898403E+03   -0.58424E-03   -0.23017E-02  3648   0.570E-01    0.272E-02
DAV:   2    -0.124066893066E+03    0.53370E-05   -0.26955E-04  4608   0.656E-02    0.167E-02
DAV:   3    -0.124066890297E+03    0.27683E-05   -0.34863E-05  5856   0.203E-02    0.442E-03
DAV:   4    -0.124066890606E+03   -0.30889E-06   -0.46362E-06  4032   0.893E-03
  76 F= -.12590858E+03 E0= -.12590606E+03  d E =-.265169E-04  mag=    -0.0000
 curvature:  -0.56 expect dE=-0.354E-04 dE for cont linesearch -0.288E-10
 trial: gam= 0.73071 g(F)=  0.629E-04 g(S)=  0.000E+00 ort = 0.227E-06 (trialstep = 0.300E+00)
 search vector abs. value=  0.601E-03
 bond charge predicted
       N       E                     dE             d eps       ncg     rms          rms(c)
DAV:   1    -0.124066638032E+03    0.25226E-03   -0.50699E-03  3888   0.266E-01    0.129E-02
DAV:   2    -0.124066635688E+03    0.23442E-05   -0.62320E-05  4320   0.316E-02    0.774E-03
DAV:   3    -0.124066635098E+03    0.58997E-06   -0.84943E-06  4704   0.109E-02
  77 F= -.12590859E+03 E0= -.12590608E+03  d E =-.163597E-04  mag=     0.0000
 trial-energy change:   -0.000016  1 .order   -0.000016   -0.000019   -0.000012
 step:   0.8423(harm=  0.8423)  dis= 0.00193  next Energy=  -125.908604 (dE=-0.265E-04)
 bond charge predicted
       N       E                     dE             d eps       ncg     rms          rms(c)
DAV:   1    -0.124066169613E+03    0.46608E-03   -0.16603E-02  3648   0.482E-01    0.245E-02
DAV:   2    -0.124066162539E+03    0.70741E-05   -0.19545E-04  3648   0.566E-02    0.147E-02
DAV:   3    -0.124066160785E+03    0.17535E-05   -0.27966E-05  4752   0.194E-02    0.386E-03
DAV:   4    -0.124066161301E+03   -0.51567E-06   -0.53214E-06  3648   0.106E-02
  78 F= -.12590861E+03 E0= -.12590610E+03  d E =-.331047E-04  mag=     0.0000
 curvature:  -4.01 expect dE=-0.232E-03 dE for cont linesearch -0.138E-05
 ZBRENT: increasing intervall
 opt :   1.9259  next Energy=  -125.908598 (dE=-0.203E-04)
 bond charge predicted
       N       E                     dE             d eps       ncg     rms          rms(c)
DAV:   1    -0.124065194703E+03    0.96608E-03   -0.66110E-02  3648   0.961E-01    0.480E-02
DAV:   2    -0.124065169444E+03    0.25259E-04   -0.78099E-04  3744   0.112E-01    0.286E-02
DAV:   3    -0.124065159955E+03    0.94888E-05   -0.10602E-04  4656   0.368E-02    0.755E-03
DAV:   4    -0.124065161032E+03   -0.10767E-05   -0.16408E-05  4464   0.173E-02    0.320E-03
DAV:   5    -0.124065161342E+03   -0.31064E-06   -0.49498E-06  4512   0.108E-02
  79 F= -.12590859E+03 E0= -.12590610E+03  d E =-.153338E-04  mag=    -0.0000
 curvature:  37.15 expect dE= 0.122E-01 dE for cont linesearch  0.147E-03
 ZBRENT: bracketing found
 ZBRENT: interpolating
 opt :   1.0890  next Energy=  -125.908613 (dE=-0.349E-04)
 bond charge predicted
       N       E                     dE             d eps       ncg     rms          rms(c)
DAV:   1    -0.124065958678E+03   -0.79765E-03   -0.39351E-02  3696   0.742E-01    0.368E-02
DAV:   2    -0.124065944387E+03    0.14291E-04   -0.48061E-04  4560   0.865E-02    0.220E-02
DAV:   3    -0.124065938665E+03    0.57214E-05   -0.60750E-05  6240   0.262E-02    0.568E-03
DAV:   4    -0.124065939246E+03   -0.58073E-06   -0.61043E-06  4080   0.932E-03
  80 F= -.12590861E+03 E0= -.12590611E+03  d E =-.345743E-04  mag=    -0.0000
 curvature:  -0.45 expect dE=-0.417E-04 dE for cont linesearch -0.578E-10
 trial: gam= 1.50517 g(F)=  0.931E-04 g(S)=  0.000E+00 ort =-0.278E-06 (trialstep = 0.189E+00)
 search vector abs. value=  0.145E-02
 bond charge predicted
       N       E                     dE             d eps       ncg     rms          rms(c)
DAV:   1    -0.124065689675E+03    0.24899E-03   -0.48961E-03  4128   0.262E-01    0.125E-02
DAV:   2    -0.124065687793E+03    0.18821E-05   -0.56530E-05  4176   0.300E-02    0.764E-03
DAV:   3    -0.124065687341E+03    0.45248E-06   -0.77512E-06  4512   0.103E-02
  81 F= -.12590863E+03 E0= -.12590612E+03  d E =-.167607E-04  mag=     0.0000
 ZBRENT: can't locate minimum, use default step
 trial-energy change:   -0.000017  1 .order   -0.000016   -0.000018   -0.000014
 step:   0.7576(harm=  0.9193)  dis= 0.00296  next Energy=  -125.908655 (dE=-0.426E-04)
 bond charge predicted
       N       E                     dE             d eps       ncg     rms          rms(c)
DAV:   1    -0.124064935036E+03    0.75276E-03   -0.44340E-02  3648   0.787E-01    0.382E-02
DAV:   2    -0.124064922513E+03    0.12523E-04   -0.48769E-04  3648   0.891E-02    0.233E-02
DAV:   3    -0.124064917203E+03    0.53103E-05   -0.67073E-05  4608   0.292E-02    0.598E-03
DAV:   4    -0.124064917796E+03   -0.59275E-06   -0.10324E-05  4080   0.129E-02    0.262E-03
DAV:   5    -0.124064917925E+03   -0.12955E-06   -0.19095E-06  5136   0.686E-03
  82 F= -.12590867E+03 E0= -.12590617E+03  d E =-.538788E-04  mag=    -0.0000
 curvature:  -6.85 expect dE=-0.409E-03 dE for cont linesearch -0.109E-04
 ZBRENT: increasing intervall
 opt :   1.8939  next Energy=  -125.908692 (dE=-0.795E-04)
 bond charge predicted
       N       E                     dE             d eps       ncg     rms          rms(c)
DAV:   1    -0.124063387758E+03    0.15300E-02   -0.17686E-01  3648   0.157E+00    0.751E-02
DAV:   2    -0.124063341274E+03    0.46484E-04   -0.19535E-03  4272   0.176E-01    0.454E-02
DAV:   3    -0.124063315687E+03    0.25587E-04   -0.24841E-04  4512   0.546E-02    0.116E-02
DAV:   4    -0.124063316942E+03   -0.12551E-05   -0.34383E-05  6144   0.200E-02    0.480E-03
DAV:   5    -0.124063317199E+03   -0.25695E-06   -0.11109E-06  4848   0.427E-03
  83 F= -.12590868E+03 E0= -.12590621E+03  d E =-.695063E-04  mag=    -0.0000
 curvature: -16.11 expect dE=-0.351E-02 dE for cont linesearch -0.498E-05
 ZBRENT: bracketing found
 ZBRENT: interpolating
 opt :   1.5464  next Energy=  -125.908685 (dE=-0.732E-04)
 bond charge predicted
       N       E                     dE             d eps       ncg     rms          rms(c)
DAV:   1    -0.124063821680E+03   -0.50474E-03   -0.16485E-02  3648   0.480E-01    0.231E-02
DAV:   2    -0.124063817070E+03    0.46105E-05   -0.18661E-04  4512   0.542E-02    0.140E-02
DAV:   3    -0.124063815383E+03    0.16864E-05   -0.24007E-05  4608   0.167E-02    0.360E-03
DAV:   4    -0.124063815811E+03   -0.42778E-06   -0.31375E-06  4224   0.634E-03
  84 F= -.12590869E+03 E0= -.12590621E+03  d E =-.733255E-04  mag=     0.0000
 curvature: -11.92 expect dE=-0.170E-02 dE for cont linesearch -0.372E-07
 trial: gam= 1.51028 g(F)=  0.143E-03 g(S)=  0.000E+00 ort = 0.213E-05 (trialstep = 0.193E+00)
 search vector abs. value=  0.346E-02
 bond charge predicted
       N       E                     dE             d eps       ncg     rms          rms(c)
DAV:   1    -0.124063424218E+03    0.39117E-03   -0.12209E-02  3648   0.414E-01    0.196E-02
DAV:   2    -0.124063420963E+03    0.32554E-05   -0.13970E-04  3888   0.473E-02    0.120E-02
DAV:   3    -0.124063419613E+03    0.13498E-05   -0.18308E-05  4032   0.152E-02    0.336E-03
DAV:   4    -0.124063419873E+03   -0.25962E-06   -0.28716E-06  3984   0.629E-03
  85 F= -.12590871E+03 E0= -.12590623E+03  d E =-.234109E-04  mag=     0.0000
 trial-energy change:   -0.000023  1 .order   -0.000023   -0.000028   -0.000018
 step:   0.5262(harm=  0.5262)  dis= 0.00333  next Energy=  -125.908724 (dE=-0.385E-04)
 bond charge predicted
       N       E                     dE             d eps       ncg     rms          rms(c)
DAV:   1    -0.124062725683E+03    0.69393E-03   -0.36273E-02  3648   0.714E-01    0.344E-02
DAV:   2    -0.124062716311E+03    0.93721E-05   -0.40252E-04  3936   0.805E-02    0.209E-02
DAV:   3    -0.124062711766E+03    0.45446E-05   -0.52935E-05  3840   0.258E-02    0.569E-03
DAV:   4    -0.124062712230E+03   -0.46390E-06   -0.86859E-06  4416   0.103E-02
  86 F= -.12590872E+03 E0= -.12590625E+03  d E =-.385497E-04  mag=     0.0000
 curvature:  -6.23 expect dE=-0.281E-03 dE for cont linesearch -0.405E-09
 trial: gam= 0.34601 g(F)=  0.450E-04 g(S)=  0.000E+00 ort =-0.475E-06 (trialstep = 0.260E+00)
 search vector abs. value=  0.459E-03
 bond charge predicted
       N       E                     dE             d eps       ncg     rms          rms(c)
DAV:   1    -0.124062524768E+03    0.18700E-03   -0.28608E-03  3648   0.201E-01    0.102E-02
DAV:   2    -0.124062524086E+03    0.68189E-06   -0.34107E-05  3792   0.235E-02    0.615E-03
DAV:   3    -0.124062523772E+03    0.31456E-06   -0.40860E-06  4128   0.747E-03
  87 F= -.12590873E+03 E0= -.12590626E+03  d E =-.962149E-05  mag=    -0.0000
 trial-energy change:   -0.000010  1 .order   -0.000009   -0.000012   -0.000006
 step:   0.5848(harm=  0.5848)  dis= 0.00150  next Energy=  -125.908737 (dE=-0.131E-04)
 bond charge predicted
       N       E                     dE             d eps       ncg     rms          rms(c)
