Lattice                                 
           1
     4.316271    2.492000    0.000000
    -4.316271    2.492000    0.000000
     0.000000    0.000000   15.000000
   B    C 
     8     8
Direct configuration=     1
   0.66888689  0.00000000  0.10000000
   0.33111211  0.00000000  0.10000000
   0.00000000  0.33111211  0.10000000
   0.00000000  0.66888689  0.10000000
   0.33111211  0.33111211  0.10000000
   0.66888689  0.66888689  0.10000000
   0.66666600  0.33333300  0.09922189
   0.33333300  0.66666600  0.10077811
   0.33333267  0.16666633  0.47060000
   0.49999967  0.99999933  0.47060000
   0.33333267  0.66666633  0.47060000
   0.49999967  0.49999933  0.47060000
   0.83333267  0.16666633  0.47060000
   0.99999967  0.99999933  0.47060000
   0.83333267  0.66666633  0.47060000
   0.99999967  0.49999933  0.47060000
Direct configuration=     2
   0.67045540 -0.00000000  0.10002561
   0.32954359 -0.00000000  0.10002561
   0.00000000  0.32954360  0.10002561
   0.00000000  0.67045541  0.10002561
   0.32954359  0.32954360  0.10002561
   0.67045540  0.67045541  0.10002561
   0.66666600  0.33333300  0.09924502
   0.33333300  0.66666600  0.10081222
   0.33332662  0.16666331  0.47057390
   0.50000087  0.00000174  0.47057338
   0.33333267  0.66666633  0.47057272
   0.50000087  0.49999813  0.47057338
   0.83333569  0.16666331  0.47057390
   0.99999967  0.99999933  0.47057451
   0.83333569  0.66667238  0.47057390
   0.99999726  0.49999813  0.47057338
Direct configuration=     3
   0.66970120 -0.00000000  0.10001330
   0.33029780 -0.00000000  0.10001330
   0.00000000  0.33029780  0.10001330
   0.00000000  0.66970120  0.10001330
   0.33029780  0.33029780  0.10001330
   0.66970120  0.66970120  0.10001330
   0.66666600  0.33333300  0.09923390
   0.33333300  0.66666600  0.10079582
   0.33332953  0.16666476  0.47058645
   0.50000029  0.00000058  0.47058618
   0.33333267  0.66666633  0.47058584
   0.50000029  0.49999871  0.47058618
   0.83333424  0.16666476  0.47058645
   0.99999967  0.99999933  0.47058676
   0.83333424  0.66666947  0.47058645
   0.99999842  0.49999871  0.47058618
Direct configuration=     4
   0.66970488 -0.00000000  0.10001336
   0.33029412 -0.00000000  0.10001336
   0.00000000  0.33029412  0.10001336
   0.00000000  0.66970488  0.10001336
   0.33029412  0.33029412  0.10001336
   0.66970488  0.66970488  0.10001336
   0.66666600  0.33333300  0.09923395
   0.33333300  0.66666600  0.10079590
   0.33332951  0.16666476  0.47058639
   0.50000029  0.00000059  0.47058612
   0.33333267  0.66666633  0.47058578
   0.50000029  0.49999871  0.47058612
   0.83333424  0.16666476  0.47058639
   0.99999967  0.99999933  0.47058670
   0.83333424  0.66666949  0.47058639
   0.99999841  0.49999871  0.47058612
Direct configuration=     5
   0.66970334 -0.00000000  0.10001333
   0.33029566 -0.00000000  0.10001333
   0.00000000  0.33029566  0.10001333
   0.00000000  0.66970334  0.10001333
   0.33029566  0.33029566  0.10001333
   0.66970334  0.66970334  0.10001333
   0.66666600  0.33333300  0.09923393
   0.33333300  0.66666600  0.10079587
   0.33332952  0.16666476  0.47058642
   0.50000029  0.00000058  0.47058614
   0.33333267  0.66666633  0.47058580
   0.50000029  0.49999871  0.47058614
   0.83333424  0.16666476  0.47058642
   0.99999967  0.99999933  0.47058673
   0.83333424  0.66666948  0.47058642
   0.99999842  0.49999871  0.47058614
Direct configuration=     6
   0.66970227 -0.00000000  0.10001332
   0.33029673 -0.00000000  0.10001332
   0.00000000  0.33029673  0.10001332
   0.00000000  0.66970227  0.10001332
   0.33029673  0.33029673  0.10001332
   0.66970227  0.66970227  0.10001332
   0.66666600  0.33333300  0.09923391
   0.33333300  0.66666600  0.10079585
   0.33332952  0.16666476  0.47058643
   0.50000029  0.00000058  0.47058616
   0.33333267  0.66666633  0.47058582
   0.50000029  0.49999871  0.47058616
   0.83333424  0.16666476  0.47058643
   0.99999967  0.99999933  0.47058675
   0.83333424  0.66666948  0.47058643
   0.99999842  0.49999871  0.47058616
Direct configuration=     7
   0.66970174 -0.00000000  0.10001331
   0.33029726 -0.00000000  0.10001331
   0.00000000  0.33029726  0.10001331
   0.00000000  0.66970174  0.10001331
   0.33029726  0.33029726  0.10001331
   0.66970174  0.66970174  0.10001331
   0.66666600  0.33333300  0.09923390
   0.33333300  0.66666600  0.10079583
   0.33332953  0.16666476  0.47058644
   0.50000029  0.00000058  0.47058617
   0.33333267  0.66666633  0.47058583
   0.50000029  0.49999871  0.47058617
   0.83333424  0.16666476  0.47058644
   0.99999967  0.99999933  0.47058676
   0.83333424  0.66666947  0.47058644
   0.99999842  0.49999871  0.47058617
Direct configuration=     8
   0.66970173 -0.00000002  0.10003674
   0.33029725 -0.00000002  0.10003674
   0.00000002  0.33029727  0.10003674
   0.00000002  0.66970175  0.10003674
   0.33029725  0.33029727  0.10003674
   0.66970173  0.66970175  0.10003674
   0.66666600  0.33333300  0.09925760
   0.33333300  0.66666600  0.10082363
   0.33333413  0.16666706  0.47056263
   0.49999934 -0.00000131  0.47056197
   0.33333267  0.66666633  0.47056121
   0.49999934  0.49999966  0.47056197
   0.83333194  0.16666706  0.47056263
   0.99999967  0.99999933  0.47056333
   0.83333194  0.66666487  0.47056263
   0.00000031  0.49999966  0.47056197
Direct configuration=     9
   0.66970172 -0.00000008  0.10010703
   0.33029720 -0.00000008  0.10010703
   0.00000008  0.33029728  0.10010703
   0.00000008  0.66970180  0.10010703
   0.33029720  0.33029728  0.10010703
   0.66970172  0.66970180  0.10010703
   0.66666600  0.33333300  0.09932868
   0.33333300  0.66666600  0.10090700
   0.33334793  0.16667396  0.47049119
   0.49999650 -0.00000700  0.47048938
   0.33333267  0.66666633  0.47048735
   0.49999650  0.50000250  0.47048938
   0.83332504  0.16667396  0.47049119
   0.99999967  0.99999933  0.47049305
   0.83332504  0.66665107  0.47049119
   0.00000600  0.50000250  0.47048938
Direct configuration=    10
   0.66970171 -0.00000019  0.10024762
   0.33029710 -0.00000019  0.10024762
   0.00000019  0.33029729  0.10024762
   0.00000019  0.66970190  0.10024762
   0.33029710  0.33029729  0.10024762
   0.66970171  0.66970190  0.10024762
   0.66666600  0.33333300  0.09947085
   0.33333300  0.66666600  0.10107375
   0.33337553  0.16668776  0.47034831
   0.49999081 -0.00001838  0.47034420
   0.33333267  0.66666633  0.47033964
   0.49999081  0.50000819  0.47034420
   0.83331124  0.16668776  0.47034831
   0.99999967  0.99999933  0.47035250
   0.83331124  0.66662347  0.47034831
   0.00001738  0.50000819  0.47034420
Direct configuration=    11
   0.66970167 -0.00000041  0.10052880
   0.33029692 -0.00000041  0.10052880
   0.00000041  0.33029733  0.10052880
   0.00000041  0.66970208  0.10052880
   0.33029692  0.33029733  0.10052880
   0.66970167  0.66970208  0.10052880
   0.66666600  0.33333300  0.09975519
   0.33333300  0.66666600  0.10140725
   0.33343073  0.16671536  0.47006256
   0.49997943 -0.00004114  0.47005383
   0.33333267  0.66666633  0.47004421
   0.49997943  0.50001957  0.47005383
   0.83328364  0.16671536  0.47006256
   0.99999967  0.99999933  0.47007138
   0.83328364  0.66656827  0.47006256
   0.00004014  0.50001957  0.47005383
Direct configuration=    12
   0.66970160 -0.00000086  0.10109116
   0.33029654 -0.00000086  0.10109116
   0.00000086  0.33029740  0.10109116
   0.00000086  0.66970246  0.10109116
   0.33029654  0.33029740  0.10109116
   0.66970160  0.66970246  0.10109116
   0.66666600  0.33333300  0.10032386
   0.33333300  0.66666600  0.10207425
   0.33354113  0.16677056  0.46949105
   0.49995667 -0.00008666  0.46947310
   0.33333267  0.66666633  0.46945335
   0.49995667  0.50004233  0.46947310
   0.83322844  0.16677056  0.46949105
   0.99999967  0.99999933  0.46950916
   0.83322844  0.66645787  0.46949105
   0.00008566  0.50004233  0.46947310
Direct configuration=    13
   0.66970146 -0.00000176  0.10221587
   0.33029578 -0.00000176  0.10221587
   0.00000176  0.33029754  0.10221587
   0.00000176  0.66970322  0.10221587
   0.33029578  0.33029754  0.10221587
   0.66970146  0.66970322  0.10221587
   0.66666600  0.33333300  0.10146121
   0.33333300  0.66666600  0.10340825
   0.33376193  0.16688096  0.46834803
   0.49991115 -0.00017770  0.46831163
   0.33333267  0.66666633  0.46827163
   0.49991115  0.50008785  0.46831163
   0.83311804  0.16688096  0.46834803
   0.99999967  0.99999933  0.46838471
   0.83311804  0.66623707  0.46834803
   0.00017670  0.50008785  0.46831163
Direct configuration=    14
   0.66970117 -0.00000356  0.10446530
   0.33029427 -0.00000356  0.10446530
   0.00000356  0.33029783  0.10446530
   0.00000356  0.66970473  0.10446530
   0.33029427  0.33029783  0.10446530
   0.66970117  0.66970473  0.10446530
   0.66666600  0.33333300  0.10373591
   0.33333300  0.66666600  0.10607625
   0.33420352  0.16710176  0.46606199
   0.49982011 -0.00035978  0.46598870
   0.33333267  0.66666633  0.46590819
   0.49982011  0.50017889  0.46598870
   0.83289724  0.16710176  0.46606199
   0.99999967  0.99999933  0.46613582
   0.83289724  0.66579548  0.46606199
   0.00035878  0.50017889  0.46598870
Direct configuration=    15
   0.66970061 -0.00000716  0.10896415
   0.33029124 -0.00000716  0.10896415
   0.00000716  0.33029839  0.10896415
   0.00000716  0.66970776  0.10896415
   0.33029124  0.33029839  0.10896415
   0.66970061  0.66970776  0.10896415
   0.66666600  0.33333300  0.10828532
   0.33333300  0.66666600  0.11141224
   0.33508672  0.16754336  0.46148990
   0.49963804 -0.00072393  0.46134283
   0.33333267  0.66666633  0.46118132
   0.49963804  0.50036096  0.46134283
   0.83245564  0.16754336  0.46148990
   0.99999967  0.99999933  0.46163803
   0.83245564  0.66491228  0.46148990
   0.00072293  0.50036096  0.46134283
Direct configuration=    16
   0.66969947 -0.00001435  0.11796185
   0.33028518 -0.00001435  0.11796185
   0.00001435  0.33029953  0.11796185
   0.00001435  0.66971382  0.11796185
   0.33028518  0.33029953  0.11796185
   0.66969947  0.66971382  0.11796185
   0.66666600  0.33333300  0.11738412
   0.33333300  0.66666600  0.12208423
   0.33685312  0.16842656  0.45234574
   0.49927389 -0.00145223  0.45205110
   0.33333267  0.66666633  0.45172757
   0.49927389  0.50072511  0.45205110
   0.83157244  0.16842656  0.45234574
   0.99999967  0.99999933  0.45264245
   0.83157244  0.66314588  0.45234574
   0.00145123  0.50072511  0.45205110
Direct configuration=    17
   0.66969947 -0.00001435  0.11796274
   0.33028518 -0.00001435  0.11796274
   0.00001435  0.33029953  0.11796274
   0.00001435  0.66971382  0.11796274
   0.33028518  0.33029953  0.11796274
   0.66969947  0.66971382  0.11796274
   0.66666600  0.33333300  0.11738502
   0.33333300  0.66666600  0.12208529
   0.33685319  0.16842659  0.45234483
   0.49927387 -0.00145226  0.45205018
   0.33333267  0.66666633  0.45172664
   0.49927387  0.50072513  0.45205018
   0.83157241  0.16842659  0.45234483
   0.99999967  0.99999933  0.45264156
   0.83157241  0.66314581  0.45234483
   0.00145126  0.50072513  0.45205018
Direct configuration=    18
   0.66969946 -0.00001436  0.11796542
   0.33028518 -0.00001436  0.11796542
   0.00001436  0.33029954  0.11796542
   0.00001436  0.66971382  0.11796542
   0.33028518  0.33029954  0.11796542
   0.66969946  0.66971382  0.11796542
   0.66666600  0.33333300  0.11738772
   0.33333300  0.66666600  0.12208846
   0.33685340  0.16842670  0.45234211
   0.49927383 -0.00145234  0.45204741
   0.33333267  0.66666633  0.45172383
   0.49927383  0.50072517  0.45204741
   0.83157230  0.16842670  0.45234211
   0.99999967  0.99999933  0.45263888
   0.83157230  0.66314560  0.45234211
   0.00145134  0.50072517  0.45204741
Direct configuration=    19
   0.66969946 -0.00001437  0.11797078
   0.33028518 -0.00001437  0.11797078
   0.00001437  0.33029954  0.11797078
   0.00001437  0.66971382  0.11797078
   0.33028518  0.33029954  0.11797078
   0.66969946  0.66971382  0.11797078
   0.66666600  0.33333300  0.11739313
   0.33333300  0.66666600  0.12209481
   0.33685381  0.16842691  0.45233666
   0.49927375 -0.00145250  0.45204189
   0.33333267  0.66666633  0.45171821
   0.49927375  0.50072525  0.45204189
   0.83157209  0.16842691  0.45233666
   0.99999967  0.99999933  0.45263351
   0.83157209  0.66314519  0.45233666
   0.00145150  0.50072525  0.45204189
Direct configuration=    20
   0.66969944 -0.00001438  0.11798150
   0.33028518 -0.00001438  0.11798150
   0.00001438  0.33029956  0.11798150
   0.00001438  0.66971382  0.11798150
   0.33028518  0.33029956  0.11798150
   0.66969944  0.66971382  0.11798150
   0.66666600  0.33333300  0.11740396
   0.33333300  0.66666600  0.12210751
   0.33685465  0.16842732  0.45232576
   0.49927359 -0.00145282  0.45203083
   0.33333267  0.66666633  0.45170698
   0.49927359  0.50072541  0.45203083
   0.83157168  0.16842732  0.45232576
   0.99999967  0.99999933  0.45262278
   0.83157168  0.66314435  0.45232576
   0.00145182  0.50072541  0.45203083
Direct configuration=    21
   0.66969941 -0.00001442  0.11800294
   0.33028517 -0.00001442  0.11800294
   0.00001442  0.33029959  0.11800294
   0.00001442  0.66971383  0.11800294
   0.33028517  0.33029959  0.11800294
   0.66969941  0.66971383  0.11800294
   0.66666600  0.33333300  0.11742560
   0.33333300  0.66666600  0.12213289
   0.33685632  0.16842816  0.45230397
   0.49927326 -0.00145347  0.45200872
   0.33333267  0.66666633  0.45168451
   0.49927326  0.50072574  0.45200872
   0.83157084  0.16842816  0.45230397
   0.99999967  0.99999933  0.45260131
   0.83157084  0.66314268  0.45230397
   0.00145247  0.50072574  0.45200872
Direct configuration=    22
   0.66969935 -0.00001449  0.11804581
   0.33028516 -0.00001449  0.11804581
   0.00001449  0.33029965  0.11804581
   0.00001449  0.66971384  0.11804581
   0.33028516  0.33029965  0.11804581
   0.66969935  0.66971384  0.11804581
   0.66666600  0.33333300  0.11746888
   0.33333300  0.66666600  0.12218367
   0.33685965  0.16842983  0.45226040
   0.49927261 -0.00145477  0.45196449
   0.33333267  0.66666633  0.45163958
   0.49927261  0.50072639  0.45196449
   0.83156917  0.16842983  0.45226040
   0.99999967  0.99999933  0.45255837
   0.83156917  0.66313935  0.45226040
   0.00145377  0.50072639  0.45196449
Direct configuration=    23
   0.66969923 -0.00001463  0.11813155
   0.33028514 -0.00001463  0.11813155
   0.00001463  0.33029977  0.11813155
   0.00001463  0.66971386  0.11813155
   0.33028514  0.33029977  0.11813155
   0.66969923  0.66971386  0.11813155
   0.66666600  0.33333300  0.11755545
   0.33333300  0.66666600  0.12228523
   0.33686633  0.16843316  0.45217324
   0.49927132 -0.00145737  0.45187603
   0.33333267  0.66666633  0.45154972
   0.49927132  0.50072768  0.45187603
   0.83156584  0.16843316  0.45217324
   0.99999967  0.99999933  0.45247250
   0.83156584  0.66313267  0.45217324
   0.00145637  0.50072768  0.45187603
Direct configuration=    24
   0.66969898 -0.00001492  0.11830303
   0.33028510 -0.00001492  0.11830303
   0.00001492  0.33030002  0.11830303
   0.00001492  0.66971390  0.11830303
   0.33028510  0.33030002  0.11830303
   0.66969898  0.66971390  0.11830303
   0.66666600  0.33333300  0.11772859
   0.33333300  0.66666600  0.12248834
   0.33687968  0.16843984  0.45199892
   0.49926872 -0.00146256  0.45169912
   0.33333267  0.66666633  0.45136999
   0.49926872  0.50073028  0.45169912
   0.83155916  0.16843984  0.45199892
   0.99999967  0.99999933  0.45230077
   0.83155916  0.66311932  0.45199892
   0.00146156  0.50073028  0.45169912
Direct configuration=    25
   0.66969849 -0.00001550  0.11864600
   0.33028502 -0.00001550  0.11864600
   0.00001550  0.33030051  0.11864600
   0.00001550  0.66971398  0.11864600
   0.33028502  0.33030051  0.11864600
   0.66969849  0.66971398  0.11864600
   0.66666600  0.33333300  0.11807488
   0.33333300  0.66666600  0.12289456
   0.33690638  0.16845319  0.45165029
   0.49926352 -0.00147295  0.45134529
   0.33333267  0.66666633  0.45101053
   0.49926352  0.50073548  0.45134529
   0.83154581  0.16845319  0.45165029
   0.99999967  0.99999933  0.45195729
   0.83154581  0.66309262  0.45165029
   0.00147195  0.50073548  0.45134529
Direct configuration=    26
   0.66969750 -0.00001665  0.11933193
   0.33028485 -0.00001665  0.11933193
   0.00001665  0.33030150  0.11933193
   0.00001665  0.66971415  0.11933193
   0.33028485  0.33030150  0.11933193
   0.66969750  0.66971415  0.11933193
   0.66666600  0.33333300  0.11876744
   0.33333300  0.66666600  0.12370700
   0.33695977  0.16847989  0.45095303
   0.49925314 -0.00149373  0.45063764
   0.33333267  0.66666633  0.45029161
   0.49925314  0.50074586  0.45063764
   0.83151911  0.16847989  0.45095303
   0.99999967  0.99999933  0.45127033
   0.83151911  0.66303923  0.45095303
   0.00149273  0.50074586  0.45063764
Direct configuration=    27
   0.66969553 -0.00001895  0.12070380
   0.33028452 -0.00001895  0.12070380
   0.00001895  0.33030347  0.12070380
   0.00001895  0.66971448  0.12070380
   0.33028452  0.33030347  0.12070380
   0.66969553  0.66971448  0.12070380
   0.66666600  0.33333300  0.12015257
   0.33333300  0.66666600  0.12533188
   0.33706657  0.16853328  0.44955851
   0.49923236 -0.00153528  0.44922234
   0.33333267  0.66666633  0.44885378
   0.49923236  0.50076664  0.44922234
   0.83146572  0.16853328  0.44955851
   0.99999967  0.99999933  0.44989642
   0.83146572  0.66293243  0.44955851
   0.00153428  0.50076664  0.44922234
Direct configuration=    28
   0.66969159 -0.00002355  0.12344754
   0.33028386 -0.00002355  0.12344754
   0.00002355  0.33030741  0.12344754
   0.00002355  0.66971514  0.12344754
   0.33028386  0.33030741  0.12344754
   0.66969159  0.66971514  0.12344754
   0.66666600  0.33333300  0.12292282
   0.33333300  0.66666600  0.12858165
   0.33728016  0.16864008  0.44676948
   0.49919081 -0.00161838  0.44639173
   0.33333267  0.66666633  0.44597812
   0.49919081  0.50080819  0.44639173
   0.83135892  0.16864008  0.44676948
   0.99999967  0.99999933  0.44714860
   0.83135892  0.66271884  0.44676948
   0.00161738  0.50080819  0.44639173
Direct configuration=    29
   0.66968371 -0.00003276  0.12893501
   0.33028254 -0.00003276  0.12893501
   0.00003276  0.33031529  0.12893501
   0.00003276  0.66971646  0.12893501
   0.33028254  0.33031529  0.12893501
   0.66968371  0.66971646  0.12893501
   0.66666600  0.33333300  0.12846332
   0.33333300  0.66666600  0.13508118
   0.33770734  0.16885367  0.44119140
   0.49910771 -0.00178458  0.44073051
   0.33333267  0.66666633  0.44022678
   0.49910771  0.50089129  0.44073051
   0.83114533  0.16885367  0.44119140
   0.99999967  0.99999933  0.44165295
   0.83114533  0.66229166  0.44119140
   0.00178358  0.50089129  0.44073051
Direct configuration=    30
   0.66966794 -0.00005117  0.13990995
   0.33027989 -0.00005117  0.13990995
   0.00005117  0.33033106  0.13990995
   0.00005117  0.66971911  0.13990995
   0.33027989  0.33033106  0.13990995
   0.66966794  0.66971911  0.13990995
   0.66666600  0.33333300  0.13954433
   0.33333300  0.66666600  0.14808024
   0.33856170  0.16928085  0.43003524
   0.49894151 -0.00211698  0.42940808
   0.33333267  0.66666633  0.42872412
   0.49894151  0.50105749  0.42940808
   0.83071815  0.16928085  0.43003524
   0.99999967  0.99999933  0.43066166
   0.83071815  0.66143730  0.43003524
   0.00211598  0.50105749  0.42940808
Direct configuration=    31
   0.66963641 -0.00008799  0.16185983
   0.33027460 -0.00008799  0.16185983
   0.00008799  0.33036259  0.16185983
   0.00008799  0.66972440  0.16185983
   0.33027460  0.33036259  0.16185983
   0.66963641  0.66972440  0.16185983
   0.66666600  0.33333300  0.16170635
   0.33333300  0.66666600  0.17407837
   0.34027042  0.17013521  0.40772294
   0.49860910 -0.00278179  0.40676322
   0.33333267  0.66666633  0.40571880
   0.49860910  0.50138990  0.40676322
   0.82986379  0.17013521  0.40772294
   0.99999967  0.99999933  0.40867907
   0.82986379  0.65972858  0.40772294
   0.00278079  0.50138990  0.40676322
Direct configuration=    32
   0.66960142 -0.00011964  0.16663297
   0.33027794 -0.00011964  0.16663297
   0.00011964  0.33039758  0.16663297
   0.00011964  0.66972106  0.16663297
   0.33027794  0.33039758  0.16663297
   0.66960142  0.66972106  0.16663297
   0.66666600  0.33333300  0.16651153
   0.33333300  0.66666600  0.17971411
   0.34005085  0.17002542  0.40286948
   0.49866519 -0.00266961  0.40184935
   0.33333267  0.66666633  0.40073715
   0.49866519  0.50133381  0.40184935
   0.82997358  0.17002542  0.40286948
   0.99999967  0.99999933  0.40388289
   0.82997358  0.65994815  0.40286948
   0.00266861  0.50133381  0.40184935
Direct configuration=    33
   0.66960494 -0.00011645  0.16615199
   0.33027760 -0.00011645  0.16615199
   0.00011645  0.33039406  0.16615199
   0.00011645  0.66972140  0.16615199
   0.33027760  0.33039406  0.16615199
   0.66960494  0.66972140  0.16615199
   0.66666600  0.33333300  0.16602732
   0.33333300  0.66666600  0.17914621
   0.34007298  0.17003649  0.40335856
   0.49865954 -0.00268092  0.40234451
   0.33333267  0.66666633  0.40123915
   0.49865954  0.50133946  0.40234451
   0.82996251  0.17003649  0.40335856
   0.99999967  0.99999933  0.40436620
   0.82996251  0.65992602  0.40335856
   0.00267992  0.50133946  0.40234451
Direct configuration=    34
   0.66957590 -0.00014132  0.16603257
   0.33028178 -0.00014132  0.16603257
   0.00014132  0.33042310  0.16603257
   0.00014132  0.66971722  0.16603257
   0.33028178  0.33042310  0.16603257
   0.66957590  0.66971722  0.16603257
   0.66666600  0.33333300  0.16589233
   0.33333300  0.66666600  0.17898660
   0.33951686  0.16975843  0.40347827
   0.49878028 -0.00243944  0.40247885
   0.33333267  0.66666633  0.40138530
   0.49878028  0.50121872  0.40247885
   0.83024057  0.16975843  0.40347827
   0.99999967  0.99999933  0.40446903
   0.83024057  0.66048214  0.40347827
   0.00243844  0.50121872  0.40247885
Direct configuration=    35
   0.66948877 -0.00021593  0.16567431
   0.33029430 -0.00021593  0.16567431
   0.00021593  0.33051023  0.16567431
   0.00021593  0.66970470  0.16567431
   0.33029430  0.33051023  0.16567431
   0.66948877  0.66970470  0.16567431
   0.66666600  0.33333300  0.16548736
   0.33333300  0.66666600  0.17850777
   0.33784850  0.16892425  0.40383739
   0.49914249 -0.00171502  0.40288185
   0.33333267  0.66666633  0.40182378
   0.49914249  0.50085651  0.40288185
   0.83107475  0.16892425  0.40383739
   0.99999967  0.99999933  0.40477752
   0.83107475  0.66215050  0.40383739
   0.00171402  0.50085651  0.40288185
Direct configuration=    36
   0.66931451 -0.00036513  0.16495779
   0.33031936 -0.00036513  0.16495779
   0.00036513  0.33068449  0.16495779
   0.00036513  0.66967964  0.16495779
   0.33031936  0.33068449  0.16495779
   0.66931451  0.66967964  0.16495779
   0.66666600  0.33333300  0.16467742
   0.33333300  0.66666600  0.17755011
   0.33451178  0.16725589  0.40455565
   0.49986692 -0.00026616  0.40368785
   0.33333267  0.66666633  0.40270072
   0.49986692  0.50013208  0.40368785
   0.83274311  0.16725589  0.40455565
   0.99999967  0.99999933  0.40539450
   0.83274311  0.66548722  0.40455565
   0.00026516  0.50013208  0.40368785
Direct configuration=    37
   0.66925193 -0.00041872  0.16470045
   0.33032835 -0.00041872  0.16470045
   0.00041872  0.33074707  0.16470045
   0.00041872  0.66967065  0.16470045
   0.33032835  0.33074707  0.16470045
   0.66925193  0.66967065  0.16470045
   0.66666600  0.33333300  0.16438653
   0.33333300  0.66666600  0.17720617
   0.33331340  0.16665670  0.40481361
   0.50012710  0.00025419  0.40397733
   0.33333267  0.66666633  0.40301568
   0.50012710  0.49987190  0.40397733
   0.83334230  0.16665670  0.40481361
   0.99999967  0.99999933  0.40561609
   0.83334230  0.66668560  0.40481361
  -0.00025519  0.49987190  0.40397733
Direct configuration=    38
   0.66925319 -0.00041764  0.16470564
   0.33032817 -0.00041764  0.16470564
   0.00041764  0.33074581  0.16470564
   0.00041764  0.66967083  0.16470564
   0.33032817  0.33074581  0.16470564
   0.66925319  0.66967083  0.16470564
   0.66666600  0.33333300  0.16439239
   0.33333300  0.66666600  0.17721310
   0.33333755  0.16666877  0.40480841
   0.50012185  0.00024370  0.40397150
   0.33333267  0.66666633  0.40300933
   0.50012185  0.49987715  0.40397150
   0.83333023  0.16666877  0.40480841
   0.99999967  0.99999933  0.40561163
   0.83333023  0.66666145  0.40480841
  -0.00024470  0.49987715  0.40397150
Direct configuration=    39
   0.66922495 -0.00042890  0.16471394
   0.33034515 -0.00042890  0.16471394
   0.00042890  0.33077405  0.16471394
   0.00042890  0.66965385  0.16471394
   0.33034515  0.33077405  0.16471394
   0.66922495  0.66965385  0.16471394
   0.66666600  0.33333300  0.16435593
   0.33333300  0.66666600  0.17717026
   0.33332424  0.16666212  0.40479473
   0.50010046  0.00020092  0.40399346
   0.33333267  0.66666633  0.40306395
   0.50010046  0.49989854  0.40399346
   0.83333688  0.16666212  0.40479473
   0.99999967  0.99999933  0.40556164
   0.83333688  0.66667476  0.40479473
  -0.00020192  0.49989854  0.40399346
Direct configuration=    40
   0.66914025 -0.00046267  0.16473884
   0.33039608 -0.00046267  0.16473884
   0.00046267  0.33085875  0.16473884
   0.00046267  0.66960292  0.16473884
   0.33039608  0.33085875  0.16473884
   0.66914025  0.66960292  0.16473884
   0.66666600  0.33333300  0.16424655
   0.33333300  0.66666600  0.17704172
   0.33328433  0.16664217  0.40475371
   0.50003628  0.00007256  0.40405936
   0.33333267  0.66666633  0.40322781
   0.50003628  0.49996272  0.40405936
   0.83335683  0.16664217  0.40475371
   0.99999967  0.99999933  0.40541169
   0.83335683  0.66671467  0.40475371
  -0.00007356  0.49996272  0.40405936
Direct configuration=    41
   0.66897084 -0.00053021  0.16478863
   0.33049795 -0.00053021  0.16478863
   0.00053021  0.33102816  0.16478863
   0.00053021  0.66950105  0.16478863
   0.33049795  0.33102816  0.16478863
   0.66897084  0.66950105  0.16478863
   0.66666600  0.33333300  0.16402778
   0.33333300  0.66666600  0.17678464
   0.33320451  0.16660226  0.40467167
   0.49990792 -0.00018415  0.40419117
   0.33333267  0.66666633  0.40355552
   0.49990792  0.50009108  0.40419117
   0.83339674  0.16660226  0.40467167
   0.99999967  0.99999933  0.40511180
   0.83339674  0.66679449  0.40467167
   0.00018315  0.50009108  0.40419117
Direct configuration=    42
   0.66863203 -0.00066529  0.16488821
   0.33070168 -0.00066529  0.16488821
   0.00066529  0.33136697  0.16488821
   0.00066529  0.66929732  0.16488821
   0.33070168  0.33136697  0.16488821
   0.66863203  0.66929732  0.16488821
   0.66666600  0.33333300  0.16359024
   0.33333300  0.66666600  0.17627050
   0.33304487  0.16652244  0.40450757
   0.49965121 -0.00069758  0.40445477
   0.33333267  0.66666633  0.40421096
   0.49965121  0.50034779  0.40445477
   0.83347656  0.16652244  0.40450757
   0.99999967  0.99999933  0.40451200
   0.83347656  0.66695413  0.40450757
   0.00069658  0.50034779  0.40445477
Direct configuration=    43
   0.66868216 -0.00061596  0.16491692
   0.33070088 -0.00061596  0.16491692
   0.00061596  0.33131684  0.16491692
   0.00061596  0.66929812  0.16491692
   0.33070088  0.33131684  0.16491692
   0.66868216  0.66929812  0.16491692
   0.66666600  0.33333300  0.16348370
   0.33333300  0.66666600  0.17615315
   0.33312422  0.16656211  0.40447589
   0.49973874 -0.00052251  0.40450036
   0.33333267  0.66666633  0.40433261
   0.49973874  0.50026026  0.40450036
   0.83343689  0.16656211  0.40447589
   0.99999967  0.99999933  0.40440025
   0.83343689  0.66687478  0.40447589
   0.00052151  0.50026026  0.40450036
Direct configuration=    44
   0.66883254 -0.00046798  0.16500305
   0.33069849 -0.00046798  0.16500305
   0.00046798  0.33116646  0.16500305
   0.00046798  0.66930051  0.16500305
   0.33069849  0.33116646  0.16500305
   0.66883254  0.66930051  0.16500305
   0.66666600  0.33333300  0.16316408
   0.33333300  0.66666600  0.17580111
   0.33336227  0.16668114  0.40438085
   0.50000134  0.00000269  0.40463713
   0.33333267  0.66666633  0.40469759
   0.50000134  0.49999766  0.40463713
   0.83331786  0.16668114  0.40438085
   0.99999967  0.99999933  0.40406501
   0.83331786  0.66663673  0.40438085
  -0.00000369  0.49999766  0.40463713
Direct configuration=    45
   0.66889409 -0.00040740  0.16503830
   0.33069750 -0.00040740  0.16503830
   0.00040740  0.33110491  0.16503830
   0.00040740  0.66930150  0.16503830
   0.33069750  0.33110491  0.16503830
   0.66889409  0.66930150  0.16503830
   0.66666600  0.33333300  0.16303324
   0.33333300  0.66666600  0.17565701
   0.33345972  0.16672986  0.40434195
   0.50010883  0.00021767  0.40469311
   0.33333267  0.66666633  0.40484698
   0.50010883  0.49989017  0.40469311
   0.83326914  0.16672986  0.40434195
   0.99999967  0.99999933  0.40392779
   0.83326914  0.66653928  0.40434195
  -0.00021867  0.49989017  0.40469311
Direct configuration=    46
   0.66902775 -0.00035534  0.16506819
   0.33061592 -0.00035534  0.16506819
   0.00035534  0.33097125  0.16506819
   0.00035534  0.66938308  0.16506819
   0.33061592  0.33097125  0.16506819
   0.66902775  0.66938308  0.16506819
   0.66666600  0.33333300  0.16294377
   0.33333300  0.66666600  0.17556488
   0.33342279  0.16671139  0.40433995
   0.50008873  0.00017746  0.40469354
   0.33333267  0.66666633  0.40485941
   0.50008873  0.49991027  0.40469354
   0.83328761  0.16671139  0.40433995
   0.99999967  0.99999933  0.40392237
   0.83328761  0.66657621  0.40433995
  -0.00017846  0.49991027  0.40469354
Direct configuration=    47
   0.66942871 -0.00019914  0.16515784
   0.33037115 -0.00019914  0.16515784
   0.00019914  0.33057029  0.16515784
   0.00019914  0.66962785  0.16515784
   0.33037115  0.33057029  0.16515784
   0.66942871  0.66962785  0.16515784
   0.66666600  0.33333300  0.16267536
   0.33333300  0.66666600  0.17528852
   0.33331200  0.16665600  0.40433394
   0.50002842  0.00005683  0.40469482
   0.33333267  0.66666633  0.40489669
   0.50002842  0.49997058  0.40469482
   0.83334300  0.16665600  0.40433394