Lattice                                 
           1
     4.243524    2.450000    0.000000
    -4.243524    2.450000    0.000000
     0.000000    0.000000   15.000000
   B    C 
     4    11
Direct configuration=     1
   0.00415361  0.00267210  0.12034134
   0.35695335  0.00285503  0.09748893
   0.00423858  0.35550699  0.09749256
   0.65142295  0.65006557  0.09747688
   0.32808646  0.32671938  0.10030508
   0.68027775  0.00278085  0.10027562
   0.00416530  0.67883808  0.10026559
   0.99999933  0.49999967  0.32666667
   0.16666633  0.33333267  0.32666667
   0.99999933  0.99999967  0.32666667
   0.16666633  0.83333267  0.32666667
   0.49999933  0.49999967  0.32666667
   0.66666633  0.33333267  0.32666667
   0.49999933  0.99999967  0.32666667
   0.66666633  0.83333267  0.32666667
Lattice                                 
           1
     4.085322    2.358753    0.000046
    -4.085261    2.358647    0.000042
     0.000008    0.000269   15.003563
   B    C 
     4    11
Direct configuration=     2
   0.00417636  0.00274332  0.11883746
   0.35554398  0.00315122  0.09783172
   0.00385102  0.35375880  0.09783353
   0.65316687  0.65144032  0.09782277
   0.32377359  0.32191564  0.10025728
   0.68504098  0.00325344  0.10023665
   0.00373127  0.68316594  0.10022891
   0.00016083  0.49992623  0.32672705
   0.16685350  0.33404880  0.32682501
   0.00000188  0.99999478  0.32661747
   0.16718807  0.83314446  0.32682862
   0.50009213  0.50025211  0.32673065
   0.66666813  0.33333951  0.32665203
   0.49976660  0.99983539  0.32672625
   0.66594545  0.83279737  0.32682394
Lattice                                 
           1
     4.193371    2.421073    0.000015
    -4.193352    2.421039    0.000013
     0.000003    0.000085   15.001129
   B    C 
     4    11
Direct configuration=     3
   0.00416016  0.00269274  0.11986434
   0.35654382  0.00294109  0.09759766
   0.00412597  0.35499904  0.09760071
   0.65192973  0.65046506  0.09758659
   0.32683319  0.32532353  0.10028990
   0.68166187  0.00291823  0.10026327
   0.00403919  0.68009559  0.10025396
   0.00004627  0.49997833  0.32668582
   0.16672073  0.33354076  0.32671689
   0.00000007  0.99999825  0.32665106
   0.16681795  0.83327799  0.32671804
   0.50002630  0.50007302  0.32668696
   0.66666685  0.33333465  0.32666203
   0.49993171  0.99995193  0.32668557
   0.66645686  0.83317712  0.32671655
Lattice                                 
           1
     4.191892    2.420220    0.000015
    -4.191872    2.420185    0.000014
     0.000003    0.000088   15.001163
   B    C 
     4    11
Direct configuration=     4
   0.00416038  0.00269341  0.11985027
   0.35653049  0.00294389  0.09760086
   0.00412230  0.35498250  0.09760389
   0.65194623  0.65047807  0.09758983
   0.32679238  0.32527807  0.10028945
   0.68170694  0.00292270  0.10026291
   0.00403508  0.68013654  0.10025362
   0.00004779  0.49997764  0.32668638
   0.16672250  0.33354753  0.32671837
   0.00000009  0.99999820  0.32665060
   0.16682289  0.83327621  0.32671955
   0.50002718  0.50007541  0.32668756
   0.66666687  0.33333472  0.32666189
   0.49992951  0.99995038  0.32668612
   0.66645004  0.83317206  0.32671802
Lattice                                 
           1
     4.191778    2.420154    0.000015
    -4.191757    2.420119    0.000014
     0.000003    0.000088   15.001165
   B    C 
     4    11
Direct configuration=     5
   0.00416039  0.00269346  0.11984919
   0.35652946  0.00294411  0.09760111
   0.00412202  0.35498122  0.09760414
   0.65194750  0.65047907  0.09759008
   0.32678922  0.32527455  0.10028942
   0.68171043  0.00292305  0.10026288
   0.00403477  0.68013971  0.10025359
   0.00004791  0.49997758  0.32668643
   0.16672264  0.33354806  0.32671849
   0.00000010  0.99999820  0.32665057
   0.16682327  0.83327608  0.32671967
   0.50002725  0.50007560  0.32668761
   0.66666687  0.33333472  0.32666188
   0.49992933  0.99995026  0.32668617
   0.66644951  0.83317167  0.32671813
Lattice                                 
           1
     4.191826    2.420171    0.000054
    -4.191807    2.420138    0.000048
     0.000011    0.000317   15.005977
   B    C 
     4    11
Direct configuration=     6
   0.00417509  0.00274834  0.11912570
   0.35699188  0.00310320  0.09778622
   0.00388746  0.35525753  0.09778794
   0.65167744  0.64998736  0.09777746
   0.32706019  0.32527727  0.10018955
   0.68168541  0.00317193  0.10016897
   0.00380425  0.67988177  0.10016099
  -0.00002502  0.50003097  0.32674563
   0.16671517  0.33335827  0.32681751
  -0.00000239  0.99999934  0.32663715
   0.16665017  0.83329100  0.32682105
   0.49996832  0.49994515  0.32674911
   0.66666950  0.33333408  0.32665074
   0.50005300  0.00002447  0.32674478
   0.66665021  0.83335665  0.32681654
Lattice                                 
           1
     4.191900    2.420198    0.000114
    -4.191881    2.420166    0.000100
     0.000024    0.000664   15.013272
   B    C 
     4    11
Direct configuration=     7
   0.00419742  0.00283158  0.11802931
   0.35769286  0.00334436  0.09806674
   0.00353188  0.35567638  0.09806647
   0.65126803  0.64924197  0.09806143
   0.32747095  0.32528139  0.10003820
   0.68164748  0.00354921  0.10002665
   0.00345482  0.67949077  0.10002067
  -0.00013557  0.50011189  0.32683534
   0.16670383  0.33307057  0.32696758
  -0.00000617  0.00000107  0.32661682
   0.16638776  0.83331361  0.32697468
   0.49987898  0.49974740  0.32684230
   0.66667349  0.33333311  0.32663386
   0.50024045  0.00013697  0.32683361
   0.66695445  0.83363706  0.32696566
Lattice                                 
           1
     4.192048    2.420252    0.000233
    -4.192031    2.420223    0.000205
     0.000050    0.001358   15.027861
   B    C 
     4    11
Direct configuration=     8
   0.00424225  0.00299820  0.11583760
   0.35909474  0.00382663  0.09862751
   0.00282070  0.35651402  0.09862327
   0.65044918  0.64775116  0.09862911
   0.32829248  0.32528966  0.09973565
   0.68157166  0.00430379  0.09974215
   0.00275599  0.67870879  0.09974017
  -0.00035669  0.50027372  0.32701468
   0.16668115  0.33249515  0.32726757
  -0.00001371  0.00000455  0.32657617
   0.16586293  0.83335881  0.32728181
   0.49970029  0.49935189  0.32702860
   0.66668146  0.33333116  0.32660012
   0.50061535  0.00036194  0.32701118
   0.66756289  0.83419785  0.32726375
Lattice                                 
           1
     4.191955    2.420218    0.000158
    -4.191937    2.420187    0.000140
     0.000034    0.000922   15.018707
   B    C 
     4    11
Direct configuration=     9
   0.00421392  0.00289346  0.11721150
   0.35821517  0.00352407  0.09827600
   0.00326698  0.35598849  0.09827424
   0.65096303  0.64868663  0.09827324
   0.32777698  0.32528444  0.09992531
   0.68161921  0.00383030  0.09992049
   0.00319445  0.67919942  0.09991600
  -0.00021794  0.50017220  0.32690226
   0.16669541  0.33285623  0.32707952
  -0.00000898  0.00000236  0.32660165
   0.16619226  0.83333048  0.32708928
   0.49981243  0.49960007  0.32691182
   0.66667646  0.33333238  0.32662127
   0.50038014  0.00022080  0.32689987
   0.66718114  0.83384601  0.32707690
Lattice                                 
           1
     4.192075    2.420291    0.000171
    -4.192055    2.420257    0.000147
     0.000043    0.000983   15.020099
   B    C 
     4    11
Direct configuration=    10
   0.00421531  0.00290169  0.11698786
   0.35828170  0.00354803  0.09831826
   0.00322842  0.35602773  0.09831617
   0.65092873  0.64861470  0.09831604
   0.32779014  0.32526200  0.09991007
   0.68163850  0.00385972  0.09990685
   0.00316328  0.67919061  0.09990265
  -0.00018106  0.50014803  0.32692192
   0.16668778  0.33293174  0.32710253
  -0.00000542  0.00000304  0.32660978
   0.16627129  0.83333557  0.32711272
   0.49984182  0.49966297  0.32693187
   0.66667560  0.33333318  0.32662344
   0.50032299  0.00018584  0.32691939
   0.66710159  0.83376249  0.32709978
Lattice                                 
           1
     4.192435    2.420509    0.000208
    -4.192410    2.420466    0.000169
     0.000070    0.001165   15.024275
   B    C 
     4    11
Direct configuration=    11
   0.00421946  0.00292639  0.11631701
   0.35848128  0.00361990  0.09844503
   0.00311276  0.35614545  0.09844197
   0.65082585  0.64839894  0.09844441
   0.32782960  0.32519467  0.09986437
   0.68169637  0.00394795  0.09986591
   0.00306974  0.67916417  0.09986262
  -0.00007042  0.50007553  0.32698092
   0.16666489  0.33315826  0.32717158
   0.00000525  0.00000507  0.32663418
   0.16650835  0.83335086  0.32718302
   0.49993000  0.49985164  0.32699203
   0.66667305  0.33333559  0.32662993
   0.50015154  0.00008097  0.32697793
   0.66686292  0.83351193  0.32716842
Lattice                                 
           1
     4.193155    2.420945    0.000282
    -4.193120    2.420884    0.000212
     0.000124    0.001529   15.032628
   B    C 
     4    11
Direct configuration=    12
   0.00422783  0.00297584  0.11497567
   0.35888039  0.00376362  0.09869850
   0.00288145  0.35638084  0.09869350
   0.65062008  0.64796743  0.09870109
   0.32790854  0.32506002  0.09977299
   0.68181211  0.00412442  0.09978407
   0.00288270  0.67911131  0.09978258
   0.00015083  0.49993054  0.32709889
   0.16661911  0.33361127  0.32730964
   0.00002659  0.00000912  0.32668295
   0.16698242  0.83338143  0.32732359
   0.50010635  0.50022896  0.32711232
   0.66666794  0.33334042  0.32664290
   0.49980869 -0.00012876  0.32709498
   0.66638562  0.83301087  0.32730567
Lattice                                 
           1
     4.193345    2.421060    0.000301
    -4.193307    2.420994    0.000224
     0.000139    0.001625   15.034828
   B    C 
     4    11
Direct configuration=    13
   0.00423006  0.00298888  0.11462267
   0.35898546  0.00380145  0.09876521
   0.00282055  0.35644281  0.09875970
   0.65056591  0.64785383  0.09876864
   0.32792932  0.32502457  0.09974894
   0.68184258  0.00417088  0.09976253
   0.00283346  0.67909739  0.09976151
   0.00020907  0.49989236  0.32712993
   0.16660705  0.33373053  0.32734597
   0.00003221  0.00001019  0.32669578
   0.16710723  0.83338948  0.32736059
   0.50015277  0.50032830  0.32714398
   0.66666660  0.33334169  0.32664632
   0.49971842 -0.00018398  0.32712579
   0.66625996  0.83287895  0.32734179
Lattice                                 
           1
     4.193684    2.421227    0.000334
    -4.193669    2.421201    0.000231
     0.000184    0.001751   15.037975
   B    C 
     4    11
Direct configuration=    14
   0.00422451  0.00297965  0.11406068
   0.35893456  0.00376456  0.09881217
   0.00285946  0.35643806  0.09880633
   0.65058490  0.64790404  0.09881611
   0.32782751  0.32501299  0.09976967
   0.68185743  0.00406982  0.09978598
   0.00290972  0.67920486  0.09978530
   0.00017002  0.49992783  0.32718124
   0.16666314  0.33371776  0.32737724
   0.00002373  0.00000813  0.32676542
   0.16705381  0.83334549  0.32739162
   0.50010884  0.50025570  0.32719491
   0.66667428  0.33334360  0.32668284
   0.49978172 -0.00015111  0.32717686
   0.66628702  0.83294596  0.32737297
Lattice                                 
           1
     4.194700    2.421729    0.000433
    -4.194755    2.421825    0.000255
     0.000320    0.002131   15.047417
   B    C 
     4    11
Direct configuration=    15
   0.00420789  0.00295199  0.11237506
   0.35878187  0.00365386  0.09895303
   0.00297620  0.35642381  0.09894619
   0.65064185  0.64805468  0.09895849
   0.32752212  0.32497823  0.09983186
   0.68190198  0.00376669  0.09985632
   0.00313848  0.67952726  0.09985664
   0.00005287  0.50003421  0.32733512
   0.16683140  0.33367945  0.32747103
  -0.00000174  0.00000195  0.32697430
   0.16689356  0.83321351  0.32748469
   0.49997706  0.50003791  0.32734767
   0.66669733  0.33334932  0.32679240
   0.49997163 -0.00005252  0.32733006
   0.66636817  0.83314699  0.32746648
Lattice                                 
           1
     4.196732    2.422734    0.000632
    -4.196927    2.423071    0.000301
     0.000591    0.002891   15.066300
   B    C 
     4    11
Direct configuration=    16
   0.00417499  0.00289688  0.10900594
   0.35847652  0.00343251  0.09923459
   0.00320959  0.35639530  0.09922574
   0.65075572  0.64835585  0.09924308
   0.32691145  0.32490873  0.09995616
   0.68199104  0.00316056  0.09999692
   0.00359587  0.68017188  0.09999923
  -0.00018140  0.50024689  0.32764268
   0.16716782  0.33360284  0.32765849
  -0.00005270 -0.00001043  0.32739178
   0.16657312  0.83294961  0.32767073
   0.49971353  0.49960242  0.32765299
   0.66674339  0.33336075  0.32701136
   0.50035132  0.00014461  0.32763626
   0.66653042  0.83354892  0.32765339
Lattice                                 
           1
     4.196694    2.422773    0.000680
    -4.196847    2.423038    0.000312
     0.000658    0.003074   15.070417
   B    C 
     4    11
Direct configuration=    17
   0.00417482  0.00289074  0.10823374
   0.35852528  0.00335720  0.09928255
   0.00331107  0.35652677  0.09927381
   0.65061549  0.64830933  0.09929110
   0.32700666  0.32514952  0.09999405
   0.68174760  0.00301970  0.10003712
   0.00372113  0.68006025  0.10003963
  -0.00013195  0.50017738  0.32770296
   0.16701568  0.33351191  0.32770591
  -0.00002167  0.00000025  0.32749678
   0.16659293  0.83307078  0.32771718
   0.49981827  0.49971166  0.32771208
   0.66672118  0.33335528  0.32709515
   0.50027823  0.00012887  0.32769636
   0.66658595  0.83349768  0.32770092
Lattice                                 
           1
     4.196582    2.422892    0.000824
    -4.196608    2.422938    0.000345
     0.000858    0.003623   15.082767
   B    C 
     4    11
Direct configuration=    18
   0.00417444  0.00287241  0.10591777
   0.35867154  0.00313123  0.09942639
   0.00361549  0.35692120  0.09941798
   0.65019480  0.64816978  0.09943514
   0.32729229  0.32587190  0.10010768
   0.68101729  0.00259712  0.10015770
   0.00409689  0.67972534  0.10016081
   0.00001640  0.49996886  0.32788373
   0.16655928  0.33323911  0.32784812
   0.00007140  0.00003227  0.32781169
   0.16665237  0.83343432  0.32785650
   0.50013247  0.50003937  0.32788930
   0.66665452  0.33333885  0.32734642
   0.50005897  0.00008165  0.32787660
   0.66675253  0.83334394  0.32784349
Lattice                                 
           1
     4.196357    2.423131    0.001113
    -4.196131    2.422738    0.000411
     0.001257    0.004722   15.107467
   B    C 
     4    11
Direct configuration=    19
   0.00417431  0.00283615  0.10128964
   0.35896403  0.00267924  0.09971382
   0.00422429  0.35771003  0.09970609
   0.64935339  0.64789065  0.09972299
   0.32786348  0.32731668  0.10033477
   0.67955666  0.00175195  0.10039867
   0.00484838  0.67905544  0.10040297
   0.00031304  0.49955175  0.32824498
   0.16564644  0.33269348  0.32813232
   0.00025746  0.00009624  0.32844100
   0.16677120  0.83416139  0.32813490
   0.50076082  0.50069476  0.32824344
   0.66652113  0.33330597  0.32784857
   0.49962039 -0.00001281  0.32823680
   0.66708565  0.83303641  0.32812837
Lattice                                 
           1
     4.196526    2.422952    0.000897
    -4.196488    2.422887    0.000362
     0.000958    0.003899   15.088970
   B    C 
     4    11
Direct configuration=    20
   0.00417346  0.00286269  0.10474981
   0.35874505  0.00301781  0.09949893
   0.00376846  0.35711932  0.09949070
   0.64998353  0.64809969  0.09950777
   0.32743581  0.32623469  0.10016500
   0.68065049  0.00238488  0.10021849
   0.00428567  0.67955723  0.10022193
   0.00009097  0.49986421  0.32797490
   0.16633007  0.33310211  0.32791982
   0.00011826  0.00004842  0.32797051
   0.16668228  0.83361690  0.32792676
   0.50029036  0.50020400  0.32797869
   0.66662112  0.33333066  0.32747314
   0.49994889  0.00005796  0.32796750
   0.66683625  0.83326679  0.32791538
Lattice                                 
           1
     4.195820    2.422415    0.000924
    -4.195858    2.422480    0.000368
     0.000996    0.004003   15.090300
   B    C 
     4    11
Direct configuration=    21
   0.00418057  0.00286649  0.10432466
   0.35892828  0.00299136  0.09953277
   0.00382489  0.35732003  0.09952540
   0.64973584  0.64792154  0.09954080
   0.32765431  0.32642490  0.10016432
   0.68044930  0.00244863  0.10021600
   0.00426120  0.67929841  0.10021913
   0.00007697  0.49995525  0.32798588
   0.16658183  0.33331497  0.32797225
   0.00004390  0.00002389  0.32801102
   0.16676224  0.83345802  0.32797825
   0.50011165  0.50012974  0.32798875
   0.66669203  0.33335219  0.32757290
   0.49993545 -0.00001544  0.32797895
   0.66672220  0.83327736  0.32796824
Lattice                                 
           1
     4.195385    2.422083    0.000941
    -4.195469    2.422230    0.000372
     0.001019    0.004068   15.091119
   B    C 
     4    11
Direct configuration=    22
   0.00418495  0.00286883  0.10406295
   0.35904111  0.00297508  0.09955361
   0.00385964  0.35744362  0.09954676
   0.64958333  0.64781184  0.09956113
   0.32778885  0.32654201  0.10016390
   0.68032543  0.00248788  0.10021447
   0.00424614  0.67913905  0.10021741
   0.00006835  0.50001131  0.32799263
   0.16673685  0.33344603  0.32800452
  -0.00000189  0.00000879  0.32803596
   0.16681147  0.83336020  0.32800995
   0.50000161  0.50008401  0.32799495
   0.66673569  0.33336544  0.32763431
   0.49992717 -0.00006063  0.32798600
   0.66665198  0.83328386  0.32800078
Lattice                                 
           1
     4.195220    2.421957    0.000948
    -4.195322    2.422134    0.000374
     0.001028    0.004092   15.091431
   B    C 
     4    11
Direct configuration=    23
   0.00418662  0.00286973  0.10396323
   0.35908411  0.00296887  0.09956155
   0.00387289  0.35749072  0.09955490
   0.64952520  0.64777003  0.09956888
   0.32784013  0.32658665  0.10016374
   0.68027822  0.00250283  0.10021389
   0.00424040  0.67907832  0.10021675
   0.00006506  0.50003268  0.32799521
   0.16679593  0.33349598  0.32801681
  -0.00001934  0.00000303  0.32804547
   0.16683023  0.83332292  0.32802203
   0.49995967  0.50006658  0.32799731
   0.66675233  0.33337049  0.32765771
   0.49992401 -0.00007785  0.32798868
   0.66662522  0.83328634  0.32801318
Lattice                                 
           1
     4.194995    2.421951    0.000958
    -4.195013    2.421983    0.000374
     0.001047    0.004127   15.090642
   B    C 
     4    11
Direct configuration=    24
   0.00418225  0.00285573  0.10384035
   0.35916218  0.00298222  0.09958285
   0.00386912  0.35754584  0.09957713
   0.64943626  0.64769820  0.09958914
   0.32786556  0.32649072  0.10013647
   0.68037558  0.00265218  0.10018283
   0.00413322  0.67904028  0.10018524
   0.00006831  0.50003625  0.32798999
   0.16675718  0.33347178  0.32805038
   0.00002732  0.00001750  0.32804380
   0.16676757  0.83330362  0.32805514
   0.50001505  0.50004552  0.32799169
   0.66670599  0.33335733  0.32772312
   0.50000442 -0.00002047  0.32798401
   0.66659066  0.83329063  0.32804720
Lattice                                 
           1
     4.194586    2.421941    0.000978
    -4.194451    2.421707    0.000375
     0.001081    0.004190   15.089202
   B    C 
     4    11
Direct configuration=    25
   0.00417430  0.00283021  0.10361629
   0.35930453  0.00300656  0.09962169
   0.00386225  0.35764636  0.09961765
   0.64927409  0.64756721  0.09962608
   0.32791194  0.32631580  0.10008674
   0.68055311  0.00292450  0.10012620
   0.00393779  0.67897094  0.10012776
   0.00007422  0.50004276  0.32798048
   0.16668653  0.33342766  0.32811158
   0.00011240  0.00004388  0.32804076
   0.16665333  0.83326843  0.32811553
   0.50011604  0.50000710  0.32798144
   0.66662149  0.33333333  0.32784240
   0.50015103  0.00008415  0.32797550
   0.66652763  0.83329844  0.32810922
Lattice                                 
           1
     4.194885    2.421978    0.000992
    -4.194840    2.421900    0.000373
     0.001108    0.004229   15.086992
   B    C 
     4    11
Direct configuration=    26
   0.00415748  0.00279082  0.10347979
   0.35934818  0.00303621  0.09964657
   0.00384070  0.35765642  0.09964388
   0.64923719  0.64753725  0.09964933
   0.32789380  0.32613464  0.10004010
   0.68074541  0.00311537  0.10007292
   0.00379069  0.67898825  0.10007365
   0.00003004  0.49999463  0.32799231
   0.16669036  0.33340260  0.32814495
   0.00004765  0.00002521  0.32804647
   0.16674015  0.83335195  0.32814856
   0.50007855  0.50004035  0.32799307
   0.66668989  0.33335287  0.32791608
   0.50003231  0.00004167  0.32798833
   0.66663827  0.83329910  0.32814334
Lattice                                 
           1
     4.195061    2.422000    0.001000
    -4.195068    2.422013    0.000372
     0.001124    0.004252   15.085692
   B    C 
     4    11
Direct configuration=    27
   0.00414759  0.00276767  0.10339953
   0.35937384  0.00305364  0.09966119
   0.00382803  0.35766234  0.09965930
   0.64921550  0.64751964  0.09966300
   0.32788314  0.32602814  0.10001268
   0.68085846  0.00322757  0.10004160
   0.00370422  0.67899843  0.10004183
   0.00000406  0.49996633  0.32799927
   0.16669261  0.33338786  0.32816456
   0.00000959  0.00001423  0.32804982
   0.16679119  0.83340105  0.32816799
   0.50005652  0.50005990  0.32799990
   0.66673009  0.33336435  0.32795940
   0.49996253  0.00001670  0.32799587
   0.66670331  0.83329948  0.32816340
Lattice                                 
           1
     4.195393    2.422213    0.001008
    -4.195391    2.422209    0.000371
     0.001142    0.004276   15.083068
   B    C 
     4    11
Direct configuration=    28
   0.00413421  0.00273843  0.10332375
   0.35935690  0.00307689  0.09966484
   0.00380900  0.35762595  0.09966376
   0.64925198  0.64754558  0.09966548
   0.32788775  0.32599184  0.09998281
   0.68090495  0.00327214  0.10000654
   0.00366251  0.67900457  0.10000615
   0.00006327  0.50000515  0.32803515
   0.16670122  0.33340898  0.32816924
   0.00002388  0.00001768  0.32807102
   0.16677741  0.83337262  0.32817277
   0.50003934  0.50007487  0.32803601
   0.66671558  0.33336042  0.32798091
   0.49996808 -0.00002232  0.32803236
   0.66666462  0.83329453  0.32816853
Lattice                                 
           1
     4.196069    2.422646    0.001026
    -4.196047    2.422607    0.000368
     0.001179    0.004324   15.077734
   B    C 
     4    11
Direct configuration=    29
   0.00410700  0.00267901  0.10316966
   0.35932245  0.00312416  0.09967226
   0.00377031  0.35755198  0.09967285
   0.64932614  0.64759831  0.09967051
   0.32789712  0.32591806  0.09992209
   0.68099943  0.00336274  0.09993528
   0.00357772  0.67901704  0.09993361
   0.00018362  0.50008405  0.32810811
   0.16671872  0.33345190  0.32817875
   0.00005292  0.00002471  0.32811413
   0.16674938  0.83331482  0.32818251
   0.50000441  0.50010530  0.32810942
   0.66668608  0.33335244  0.32802464
   0.49997938 -0.00010164  0.32810654
   0.66658598  0.83328447  0.32817898
Lattice                                 
           1
     4.196031    2.422611    0.001033
    -4.196017    2.422587    0.000368
     0.001193    0.004347   15.075131
   B    C 
     4    11
Direct configuration=    30
   0.00410392  0.00267036  0.10310661
   0.35931591  0.00314178  0.09966708
   0.00375976  0.35752989  0.09966825
   0.64934560  0.64760876  0.09966442
   0.32791403  0.32593624  0.09990098
   0.68098290  0.00336370  0.09990998
   0.00357486  0.67899872  0.09990780
   0.00015395  0.50006952  0.32813996
   0.16671812  0.33344567  0.32818552
   0.00005133  0.00002491  0.32813237
   0.16674946  0.83331999  0.32818946
   0.50001557  0.50009087  0.32814157
   0.66668874  0.33335316  0.32804047
   0.49999095 -0.00007445  0.32813879
   0.66659558  0.83328821  0.32818606
Lattice                                 
           1
     4.195916    2.422507    0.001055
    -4.195927    2.422526    0.000367
     0.001235    0.004416   15.067321
   B    C 
     4    11
Direct configuration=    31
   0.00409467  0.00264440  0.10291743
   0.35929628  0.00319465  0.09965154
   0.00372814  0.35746362  0.09965445
   0.64940401  0.64764011  0.09964615
   0.32796476  0.32599080  0.09983761
   0.68093329  0.00336655  0.09983408
   0.00356626  0.67894378  0.09983034
   0.00006495  0.50002595  0.32823552
   0.16671633  0.33342698  0.32820584
   0.00004654  0.00002553  0.32818711
   0.16674968  0.83333552  0.32821032
   0.50004902  0.50004757  0.32823805
   0.66669670  0.33335530  0.32808797
   0.50002568  0.00000715  0.32823559
   0.66662435  0.83329942  0.32820733
Lattice                                 
           1
     4.195686    2.422298    0.001100
    -4.195749    2.422406    0.000366
     0.001319    0.004553   15.051702
   B    C 
     4    11
Direct configuration=    32
   0.00407618  0.00259248  0.10253887
   0.35925702  0.00330040  0.09962043
   0.00366488  0.35733107  0.09962683
   0.64952083  0.64770280  0.09960958
   0.32806624  0.32609992  0.09971082
   0.68083407  0.00337227  0.09968221
   0.00354907  0.67883390  0.09967536
  -0.00011308  0.49993880  0.32842675
   0.16671275  0.33338961  0.32824650
   0.00003696  0.00002677  0.32829664
   0.16675013  0.83336658  0.32825206
   0.50011594  0.49996097  0.32843111
   0.66671263  0.33335959  0.32818302
   0.50009512  0.00017033  0.32842927
   0.66668191  0.83332185  0.32824988
Lattice                                 
           1
     4.195771    2.422374    0.001084
    -4.195814    2.422450    0.000366
     0.001288    0.004503   15.057421
   B    C 
     4    11
Direct configuration=    33
   0.00408295  0.00261149  0.10267762
   0.35927139  0.00326168  0.09963183
   0.00368804  0.35737961  0.09963696
   0.64947806  0.64767985  0.09962299
   0.32802908  0.32605996  0.09975729
   0.68087040  0.00337017  0.09973787
   0.00355537  0.67887413  0.09973217
  -0.00004789  0.49997071  0.32835666
   0.16671406  0.33340329  0.32823160
   0.00004047  0.00002632  0.32825650
   0.16674996  0.83335521  0.32823676
   0.50009144  0.49999268  0.32836035
   0.66670680  0.33335802  0.32814818
   0.50006970  0.00011058  0.32835828
   0.66666084  0.83331364  0.32823429
Lattice                                 
           1
     4.195513    2.422232    0.001096
    -4.195551    2.422298    0.000368
     0.001309    0.004547   15.052846
   B    C 
     4    11
Direct configuration=    34
   0.00409068  0.00262409  0.10256740
   0.35928261  0.00327524  0.09960826
   0.00368509  0.35737646  0.09961402
   0.64947028  0.64766615  0.09959829
   0.32803255  0.32610136  0.09973059
   0.68082178  0.00333636  0.09970554
   0.00358655  0.67885388  0.09969912
  -0.00002095  0.49997546  0.32839372
   0.16670746  0.33340519  0.32826508
   0.00003875  0.00002535  0.32827645
   0.16676181  0.83336517  0.32827048
   0.50008534  0.50001554  0.32839790
   0.66671006  0.33335971  0.32818868
   0.50004517  0.00008148  0.32839573
   0.66666348  0.83330589  0.32826807
Lattice                                 
           1
     4.194742    2.421805    0.001134
    -4.194763    2.421840    0.000371
     0.001372    0.004680   15.039120
   B    C 
     4    11
Direct configuration=    35
   0.00411387  0.00266189  0.10223664
   0.35931629  0.00331594  0.09953752
   0.00367625  0.35736704  0.09954520
   0.64944694  0.64762507  0.09952420
   0.32804295  0.32622555  0.09965047
   0.68067591  0.00323491  0.09960853
   0.00368010  0.67879312  0.09959994
   0.00005986  0.49998970  0.32850493
   0.16668765  0.33341090  0.32836556
   0.00003360  0.00002243  0.32833632
   0.16679737  0.83339505  0.32837170
   0.50006706  0.50008411  0.32851058
   0.66671983  0.33336480  0.32831022
   0.49997157 -0.00000584  0.32850809
   0.66667140  0.83328266  0.32836944
Lattice                                 
           1
     4.193199    2.420950    0.001211
    -4.193185    2.420926    0.000378
     0.001499    0.004945   15.011669
   B    C 
     4    11
Direct configuration=    36
   0.00416030  0.00273753  0.10157451
   0.35938365  0.00339736  0.09939592
   0.00365856  0.35734819  0.09940744
   0.64940027  0.64754289  0.09937587
   0.32806376  0.32647399  0.09949007
   0.68038414  0.00303198  0.09941431
   0.00386726  0.67867157  0.09940141
   0.00022151  0.50001818  0.32872756
   0.16664802  0.33342232  0.32856670
   0.00002329  0.00001660  0.32845617
   0.16686849  0.83345482  0.32857430
   0.50003048  0.50022127  0.32873616
   0.66673937  0.33337496  0.32855353
   0.49982435 -0.00018052  0.32873302
   0.66668724  0.83323618  0.32857238
Lattice                                 
           1
     4.193222    2.420975    0.001221
    -4.193199    2.420936    0.000379
     0.001516    0.004980   15.007969
   B    C 
     4    11
Direct configuration=    37
   0.00416263  0.00274218  0.10148570
   0.35938818  0.00339902  0.09937429
   0.00365839  0.35735148  0.09938616
   0.64939517  0.64753611  0.09935357
   0.32805182  0.32648626  0.09946957
   0.68036922  0.00300718  0.09939015
   0.00388789  0.67867859  0.09937678
   0.00022132  0.50002402  0.32875377
   0.16665225  0.33342172  0.32859761
   0.00002656  0.00001802  0.32847290
   0.16686040  0.83344795  0.32860533
   0.50002923  0.50021480  0.32876267
   0.66673720  0.33337412  0.32858796
   0.49983540 -0.00017563  0.32875942
   0.66668501  0.83324150  0.32860344
Lattice                                 
           1
     4.193290    2.421050    0.001251
    -4.193240    2.420965    0.000381
     0.001567    0.005085   14.996871
   B    C 
     4    11
Direct configuration=    38
   0.00416962  0.00275611  0.10121921
   0.35940179  0.00340399  0.09930939
   0.00365787  0.35736136  0.09932230
   0.64937990  0.64751575  0.09928667
   0.32801598  0.32652310  0.09940805
   0.68032449  0.00293278  0.09931765
   0.00394979  0.67869965  0.09930287
   0.00022074  0.50004156  0.32883245
   0.16666493  0.33341993  0.32869038
   0.00003636  0.00002229  0.32852310
   0.16683615  0.83342734  0.32869844
   0.50002547  0.50019538  0.32884223
   0.66673070  0.33337162  0.32869129
   0.49986852 -0.00016096  0.32883865