Lattice                                 
           1
     4.196759    2.423000    0.000000
    -4.196759    2.423000    0.000000
     0.000000    0.000000   15.000000
   B    C 
     4    11
Direct configuration=     1
   0.00415361  0.00267210  0.12034134
   0.35695335  0.00285503  0.09748893
   0.00423858  0.35550699  0.09749256
   0.65142295  0.65006557  0.09747688
   0.32808646  0.32671938  0.10030508
   0.68027775  0.00278085  0.10027562
   0.00416530  0.67883808  0.10026559
   0.16666600  0.33333300  0.33573333
   0.33333300  0.16666600  0.33573333
   0.16666600  0.83333300  0.33573333
   0.33333300  0.66666600  0.33573333
   0.66666600  0.33333300  0.33573333
   0.83333300  0.16666600  0.33573333
   0.66666600  0.83333300  0.33573333
   0.83333300  0.66666600  0.33573333
