<?xml version="1.0" encoding="ISO-8859-1"?>
<modeling>
 <generator>
  <i name="program" type="string">vasp </i>
  <i name="version" type="string">6.3.2  </i>
  <i name="subversion" type="string">27Jun22 (build Dec 22 2022 13:13:19) complex                          parallel </i>
  <i name="platform" type="string">LinuxIFC </i>
  <i name="date" type="string">2023 08 23 </i>
  <i name="time" type="string">17:30:53 </i>
 </generator>
 <incar>
  <i type="string" name="SYSTEM">Lattice</i>
  <i type="int" name="ISTART">     0</i>
  <i type="string" name="PREC">Accurate</i>
  <i type="string" name="ALGO">Normal</i>
  <i type="int" name="ISPIN">     2</i>
  <i type="int" name="ICHARG">     2</i>
  <i type="int" name="NELM">    64</i>
  <i type="int" name="IBRION">     2</i>
  <i name="EDIFF">      0.00000001</i>
  <i name="EDIFFG">     -0.00100000</i>
  <i type="int" name="NSW">   128</i>
  <i type="int" name="ISIF">     2</i>
  <i name="ENCUT">    450.00000000</i>
  <i name="POTIM">      0.50000000</i>
  <i type="int" name="ISMEAR">     0</i>
  <i name="SIGMA">      0.10000000</i>
  <i type="logical" name="LWAVE"> F  </i>
  <i type="logical" name="LCHARG"> F  </i>
  <i type="string" name="GGA">PE</i>
  <i type="int" name="IVDW">    12</i>
 </incar>
 <primitive_cell>
  <structure name="primitive_cell" >
   <crystal>
    <varray name="basis" >
     <v>       4.21581167       2.43400000       0.00000000 </v>
     <v>      -4.21581167       2.43400000       0.00000000 </v>
     <v>       0.00000000       0.00000000      15.00000000 </v>
    </varray>
    <i name="volume">    307.83856782 </i>
    <varray name="rec_basis" >
     <v>       0.11860112       0.20542317       0.00000000 </v>
     <v>      -0.11860112       0.20542317       0.00000000 </v>
     <v>       0.00000000       0.00000000       0.06666667 </v>
    </varray>
   </crystal>
   <varray name="positions" >
    <v>       0.00415361       0.00267210       0.12034134 </v>
    <v>       0.35695335       0.00285503       0.09748893 </v>
    <v>       0.00423858       0.35550699       0.09749256 </v>
    <v>       0.65142295       0.65006557       0.09747688 </v>
    <v>       0.32808646       0.32671938       0.10030508 </v>
    <v>       0.68027775       0.00278085       0.10027562 </v>
    <v>       0.00416530       0.67883808       0.10026559 </v>
    <v>       0.16666600       0.33333300       0.33720000 </v>
    <v>       0.33333300       0.16666600       0.33720000 </v>
    <v>       0.16666600       0.83333300       0.33720000 </v>
    <v>       0.33333300       0.66666600       0.33720000 </v>
    <v>       0.66666600       0.33333300       0.33720000 </v>
    <v>       0.83333300       0.16666600       0.33720000 </v>
    <v>       0.66666600       0.83333300       0.33720000 </v>
    <v>       0.83333300       0.66666600       0.33720000 </v>
   </varray>
  </structure>
  <varray name="primitive_index" >
   <v type="int" >        1 </v>
   <v type="int" >        2 </v>
   <v type="int" >        3 </v>
   <v type="int" >        4 </v>
   <v type="int" >        5 </v>
   <v type="int" >        6 </v>
   <v type="int" >        7 </v>
   <v type="int" >        8 </v>
   <v type="int" >        9 </v>
   <v type="int" >       10 </v>
   <v type="int" >       11 </v>
   <v type="int" >       12 </v>
   <v type="int" >       13 </v>
   <v type="int" >       14 </v>
   <v type="int" >       15 </v>
  </varray>
 </primitive_cell>
 <kpoints>
  <generation param="Gamma">
   <v type="int" name="divisions">      12       12        1 </v>
   <v name="usershift">      0.00000000       0.00000000       0.00000000 </v>
   <v name="genvec1">      0.08333333       0.00000000       0.00000000 </v>
   <v name="genvec2">      0.00000000       0.08333333       0.00000000 </v>
   <v name="genvec3">      0.00000000       0.00000000       1.00000000 </v>
   <v name="shift">      0.00000000       0.00000000       0.00000000 </v>
  </generation>
  <varray name="kpointlist" >
   <v>       0.00000000       0.00000000       0.00000000 </v>
   <v>       0.08333333       0.00000000       0.00000000 </v>
   <v>       0.00000000       0.08333333       0.00000000 </v>
   <v>      -0.08333333       0.08333333       0.00000000 </v>
   <v>       0.16666667       0.00000000       0.00000000 </v>
   <v>       0.00000000       0.16666667       0.00000000 </v>
   <v>      -0.16666667       0.16666667       0.00000000 </v>
   <v>       0.25000000       0.00000000       0.00000000 </v>
   <v>       0.00000000       0.25000000       0.00000000 </v>
   <v>      -0.25000000       0.25000000       0.00000000 </v>
   <v>       0.33333333       0.00000000       0.00000000 </v>
   <v>       0.00000000       0.33333333       0.00000000 </v>
   <v>      -0.33333333       0.33333333       0.00000000 </v>
   <v>       0.41666667      -0.00000000       0.00000000 </v>
   <v>      -0.00000000       0.41666667       0.00000000 </v>
   <v>      -0.41666667       0.41666667       0.00000000 </v>
   <v>       0.50000000       0.00000000       0.00000000 </v>
   <v>       0.00000000       0.50000000       0.00000000 </v>
   <v>       0.50000000       0.50000000       0.00000000 </v>
   <v>       0.08333333       0.08333333       0.00000000 </v>
   <v>      -0.08333333       0.16666667       0.00000000 </v>
   <v>      -0.16666667       0.08333333       0.00000000 </v>
   <v>       0.16666667       0.08333333       0.00000000 </v>
   <v>      -0.08333333       0.25000000       0.00000000 </v>
   <v>      -0.25000000       0.16666667       0.00000000 </v>
   <v>      -0.16666667       0.25000000       0.00000000 </v>
   <v>       0.08333333       0.16666667       0.00000000 </v>
   <v>       0.25000000      -0.08333333       0.00000000 </v>
   <v>       0.25000000       0.08333333       0.00000000 </v>
   <v>      -0.08333333       0.33333333       0.00000000 </v>
   <v>      -0.33333333       0.25000000       0.00000000 </v>
   <v>      -0.25000000       0.33333333       0.00000000 </v>
   <v>       0.08333333       0.25000000       0.00000000 </v>
   <v>       0.33333333      -0.08333333       0.00000000 </v>
   <v>       0.33333333       0.08333333       0.00000000 </v>
   <v>      -0.08333333       0.41666667       0.00000000 </v>
   <v>      -0.41666667       0.33333333       0.00000000 </v>
   <v>      -0.33333333       0.41666667       0.00000000 </v>
   <v>       0.08333333       0.33333333       0.00000000 </v>
   <v>       0.41666667      -0.08333333       0.00000000 </v>
   <v>       0.41666667       0.08333333       0.00000000 </v>
   <v>      -0.08333333       0.50000000       0.00000000 </v>
   <v>       0.50000000       0.41666667       0.00000000 </v>
   <v>      -0.41666667       0.50000000       0.00000000 </v>
   <v>       0.08333333       0.41666667       0.00000000 </v>
   <v>       0.50000000      -0.08333333       0.00000000 </v>
   <v>       0.16666667       0.16666667       0.00000000 </v>
   <v>      -0.16666667       0.33333333       0.00000000 </v>
   <v>      -0.33333333       0.16666667       0.00000000 </v>
   <v>       0.25000000       0.16666667       0.00000000 </v>
   <v>      -0.16666667       0.41666667       0.00000000 </v>
   <v>      -0.41666667       0.25000000       0.00000000 </v>
   <v>      -0.25000000       0.41666667       0.00000000 </v>
   <v>       0.16666667       0.25000000       0.00000000 </v>
   <v>       0.41666667      -0.16666667       0.00000000 </v>
   <v>       0.33333333       0.16666667       0.00000000 </v>
   <v>      -0.16666667       0.50000000       0.00000000 </v>
   <v>       0.50000000       0.33333333       0.00000000 </v>
   <v>      -0.33333333       0.50000000       0.00000000 </v>
   <v>       0.16666667       0.33333333       0.00000000 </v>
   <v>       0.50000000      -0.16666667       0.00000000 </v>
   <v>       0.41666667       0.16666667       0.00000000 </v>
   <v>      -0.16666667      -0.41666667       0.00000000 </v>
   <v>       0.41666667       0.41666667       0.00000000 </v>
   <v>       0.25000000       0.25000000       0.00000000 </v>
   <v>      -0.25000000       0.50000000       0.00000000 </v>
   <v>       0.50000000       0.25000000       0.00000000 </v>
   <v>       0.33333333       0.25000000       0.00000000 </v>
   <v>      -0.25000000      -0.41666667       0.00000000 </v>
   <v>       0.41666667       0.33333333       0.00000000 </v>
   <v>      -0.33333333      -0.41666667       0.00000000 </v>
   <v>       0.25000000       0.33333333       0.00000000 </v>
   <v>      -0.41666667      -0.25000000       0.00000000 </v>
   <v>       0.33333333       0.33333333       0.00000000 </v>
  </varray>
  <varray name="weights" >
   <v>       0.00694444 </v>
   <v>       0.01388889 </v>
   <v>       0.01388889 </v>
   <v>       0.01388889 </v>
   <v>       0.01388889 </v>
   <v>       0.01388889 </v>
   <v>       0.01388889 </v>
   <v>       0.01388889 </v>
   <v>       0.01388889 </v>
   <v>       0.01388889 </v>
   <v>       0.01388889 </v>
   <v>       0.01388889 </v>
   <v>       0.01388889 </v>
   <v>       0.01388889 </v>
   <v>       0.01388889 </v>
   <v>       0.01388889 </v>
   <v>       0.00694444 </v>
   <v>       0.00694444 </v>
   <v>       0.00694444 </v>
   <v>       0.01388889 </v>
   <v>       0.01388889 </v>
   <v>       0.01388889 </v>
   <v>       0.01388889 </v>
   <v>       0.01388889 </v>
   <v>       0.01388889 </v>
   <v>       0.01388889 </v>
   <v>       0.01388889 </v>
   <v>       0.01388889 </v>
   <v>       0.01388889 </v>
   <v>       0.01388889 </v>
   <v>       0.01388889 </v>
   <v>       0.01388889 </v>
   <v>       0.01388889 </v>
   <v>       0.01388889 </v>
   <v>       0.01388889 </v>
   <v>       0.01388889 </v>
   <v>       0.01388889 </v>
   <v>       0.01388889 </v>
   <v>       0.01388889 </v>
   <v>       0.01388889 </v>
   <v>       0.01388889 </v>
   <v>       0.01388889 </v>
   <v>       0.01388889 </v>
   <v>       0.01388889 </v>
   <v>       0.01388889 </v>
   <v>       0.01388889 </v>
   <v>       0.01388889 </v>
   <v>       0.01388889 </v>
   <v>       0.01388889 </v>
   <v>       0.01388889 </v>
   <v>       0.01388889 </v>
   <v>       0.01388889 </v>
   <v>       0.01388889 </v>
   <v>       0.01388889 </v>
   <v>       0.01388889 </v>
   <v>       0.01388889 </v>
   <v>       0.01388889 </v>
   <v>       0.01388889 </v>
   <v>       0.01388889 </v>
   <v>       0.01388889 </v>
   <v>       0.01388889 </v>
   <v>       0.01388889 </v>
   <v>       0.01388889 </v>
   <v>       0.01388889 </v>
   <v>       0.01388889 </v>
   <v>       0.01388889 </v>
   <v>       0.01388889 </v>
   <v>       0.01388889 </v>
   <v>       0.01388889 </v>
   <v>       0.01388889 </v>
   <v>       0.01388889 </v>
   <v>       0.01388889 </v>
   <v>       0.01388889 </v>
   <v>       0.01388889 </v>
  </varray>
 </kpoints>
 <parameters>
  <separator name="general" >
   <i type="string" name="SYSTEM">Lattice</i>
   <i type="logical" name="LCOMPAT"> F  </i>
  </separator>
  <separator name="electronic" >
   <i type="string" name="PREC">accura</i>
   <i name="ENMAX">    450.00000000</i>
   <i name="ENAUG">    644.87300000</i>
   <i name="EDIFF">      0.00000001</i>
   <i type="int" name="IALGO">    38</i>
   <i type="int" name="IWAVPR">    11</i>
   <i type="int" name="NBANDS">    48</i>
   <i type="int" name="NBANDSLOW">    -1</i>
   <i type="int" name="NBANDSHIGH">    -1</i>
   <i name="NELECT">     56.00000000</i>
   <i type="int" name="TURBO">     0</i>
   <i type="int" name="IRESTART">     0</i>
   <i type="int" name="NREBOOT">     0</i>
   <i type="int" name="NMIN">     0</i>
   <i name="EREF">      0.00000000</i>
   <separator name="electronic smearing" >
    <i type="int" name="ISMEAR">     0</i>
    <i name="SIGMA">      0.10000000</i>
    <i name="KSPACING">      0.50000000</i>
    <i type="logical" name="KGAMMA"> T  </i>
    <i type="logical" name="KBLOWUP"> T  </i>
   </separator>
   <separator name="electronic projectors" >
    <i type="logical" name="LREAL"> F  </i>
    <v name="ROPT">      0.00000000      0.00000000</v>
    <i type="int" name="LMAXPAW">  -100</i>
    <i type="int" name="LMAXMIX">     2</i>
    <i type="logical" name="NLSPLINE"> F  </i>
   </separator>
   <separator name="electronic startup" >
    <i type="int" name="ISTART">     0</i>
    <i type="int" name="ICHARG">     2</i>
    <i type="int" name="INIWAV">     1</i>
   </separator>
   <separator name="electronic spin" >
    <i type="int" name="ISPIN">     2</i>
    <i type="logical" name="LNONCOLLINEAR"> F  </i>
    <v name="MAGMOM">      1.00000000      1.00000000      1.00000000      1.00000000      1.00000000      1.00000000      1.00000000      1.00000000      1.00000000      1.00000000      1.00000000      1.00000000      1.00000000      1.00000000      1.00000000</v>
    <i name="NUPDOWN">     -1.00000000</i>
    <i type="logical" name="LSORBIT"> F  </i>
    <v name="SAXIS">      0.00000000      0.00000000      1.00000000</v>
    <i type="logical" name="LSPIRAL"> F  </i>
    <v name="QSPIRAL">      0.00000000      0.00000000      0.00000000</v>
    <i type="logical" name="LZEROZ"> F  </i>
   </separator>
   <separator name="electronic exchange-correlation" >
    <i type="logical" name="LASPH"> F  </i>
    <i type="logical" name="LMETAGGA"> F  </i>
   </separator>
   <separator name="electronic convergence" >
    <i type="int" name="NELM">    64</i>
    <i type="int" name="NELMDL">    -5</i>
    <i type="int" name="NELMIN">     2</i>
    <i name="ENINI">    450.00000000</i>
    <separator name="electronic convergence detail" >
     <i type="logical" name="LDIAG"> T  </i>
     <i type="logical" name="LSUBROT"> F  </i>
     <i name="WEIMIN">      0.00100000</i>
     <i name="EBREAK">      0.00000000</i>
     <i name="DEPER">      0.30000000</i>
     <i type="int" name="NRMM">     4</i>
     <i name="TIME">      0.40000000</i>
    </separator>
   </separator>
   <separator name="electronic mixer" >
    <i name="AMIX">      0.40000000</i>
    <i name="BMIX">      1.00000000</i>
    <i name="AMIN">      0.10000000</i>
    <i name="AMIX_MAG">      1.60000000</i>
    <i name="BMIX_MAG">      1.00000000</i>
    <separator name="electronic mixer details" >
     <i type="int" name="IMIX">     4</i>
     <i type="logical" name="MIXFIRST"> F  </i>
     <i type="int" name="MAXMIX">   -45</i>
     <i name="WC">    100.00000000</i>
     <i type="int" name="INIMIX">     1</i>
     <i type="int" name="MIXPRE">     1</i>
     <i type="int" name="MREMOVE">     5</i>
    </separator>
   </separator>
   <separator name="electronic dipolcorrection" >
    <i type="logical" name="LDIPOL"> F  </i>
    <i type="logical" name="LMONO"> F  </i>
    <i type="int" name="IDIPOL">     0</i>
    <i name="EPSILON">      1.00000000</i>
    <v name="DIPOL">   -100.00000000   -100.00000000   -100.00000000</v>
    <i name="EFIELD">      0.00000000</i>
   </separator>
  </separator>
  <separator name="grids" >
   <i type="int" name="NGX">    36</i>
   <i type="int" name="NGY">    36</i>
   <i type="int" name="NGZ">   108</i>
   <i type="int" name="NGXF">    72</i>
   <i type="int" name="NGYF">    72</i>
   <i type="int" name="NGZF">   216</i>
   <i type="logical" name="ADDGRID"> F  </i>
  </separator>
  <separator name="ionic" >
   <i type="int" name="NSW">   128</i>
   <i type="int" name="IBRION">     2</i>
   <i type="int" name="MDALGO">     0</i>
   <i type="int" name="ISIF">     2</i>
   <i name="PSTRESS">      0.00000000</i>
   <i name="EDIFFG">     -0.00100000</i>
   <i type="int" name="NFREE">     1</i>
   <i name="POTIM">      0.50000000</i>
   <i name="SMASS">     -3.00000000</i>
   <i name="SCALEE">      1.00000000</i>
  </separator>
  <separator name="ionic md" >
   <i name="TEBEG">      0.00010000</i>
   <i name="TEEND">      0.00010000</i>
   <i type="int" name="NBLOCK">     1</i>
   <i type="int" name="KBLOCK">   128</i>
   <i type="int" name="NPACO">   256</i>
   <i name="APACO">     10.00000000</i>
  </separator>
  <separator name="symmetry" >
   <i type="int" name="ISYM">     2</i>
   <i name="SYMPREC">      0.00001000</i>
  </separator>
  <separator name="dos" >
   <i type="int" name="LORBIT">     0</i>
   <v name="RWIGS">     -1.00000000     -1.00000000</v>
   <i type="int" name="NEDOS">   301</i>
   <i name="EMIN">     10.00000000</i>
   <i name="EMAX">    -10.00000000</i>
   <i name="EFERMI">      0.00000000</i>
  </separator>
  <separator name="writing" >
   <i type="int" name="NWRITE">     2</i>
   <i type="logical" name="LWAVE"> F  </i>
   <i type="logical" name="LDOWNSAMPLE"> F  </i>
   <i type="logical" name="LCHARG"> F  </i>
   <i type="logical" name="LPARD"> F  </i>
   <i type="logical" name="LVTOT"> F  </i>
   <i type="logical" name="LVHAR"> F  </i>
   <i type="logical" name="LELF"> F  </i>
   <i type="logical" name="LOPTICS"> F  </i>
   <v name="STM">      0.00000000      0.00000000      0.00000000      0.00000000      0.00000000      0.00000000      0.00000000</v>
  </separator>
  <separator name="performance" >
   <i type="int" name="NPAR">    48</i>
   <i type="int" name="NSIM">     4</i>
   <i type="int" name="NBLK">    -1</i>
   <i type="logical" name="LPLANE"> T  </i>
   <i type="logical" name="LSCALAPACK"> T  </i>
   <i type="logical" name="LSCAAWARE"> F  </i>
   <i type="logical" name="LSCALU"> F  </i>
   <i type="logical" name="LASYNC"> F  </i>
   <i type="logical" name="LORBITALREAL"> F  </i>
  </separator>
  <separator name="miscellaneous" >
   <i type="int" name="IDIOT">     3</i>
   <i type="int" name="PHON_NSTRUCT">    -1</i>
   <i type="logical" name="LMUSIC"> F  </i>
   <v name="POMASS">     10.81100000     12.01100000</v>
   <v name="DARWINR">      0.00000000      0.00000000</v>
   <v name="DARWINV">      1.00000000      1.00000000</v>
   <i type="logical" name="LCORR"> T  </i>
  </separator>
  <i type="logical" name="GGA_COMPAT"> T  </i>
  <i type="logical" name="LBERRY"> F  </i>
  <i type="int" name="ICORELEVEL">     0</i>
  <i type="logical" name="LDAU"> F  </i>
  <i type="int" name="I_CONSTRAINED_M">     0</i>
  <separator name="electronic exchange-correlation" >
   <i type="string" name="GGA">PE</i>
   <i type="int" name="VOSKOWN">     0</i>
   <i type="logical" name="LHFCALC"> F  </i>
   <i type="string" name="PRECFOCK"></i>
   <i type="logical" name="LSYMGRAD"> F  </i>
   <i type="logical" name="LHFONE"> F  </i>
   <i type="logical" name="LRHFCALC"> F  </i>
   <i type="logical" name="LTHOMAS"> F  </i>
   <i type="logical" name="LMODELHF"> F  </i>
   <i type="logical" name="LFOCKACE"> F  </i>
   <i name="ENCUT4O">     -1.00000000</i>
   <i type="int" name="EXXOEP">     0</i>
   <i type="int" name="FOURORBIT">     0</i>
   <i name="AEXX">      0.00000000</i>
   <i name="HFALPHA">      0.00000000</i>
   <i name="MCALPHA">      0.00000000</i>
   <i name="ALDAX">      1.00000000</i>
   <i name="AGGAX">      1.00000000</i>
   <i name="ALDAC">      1.00000000</i>
   <i name="AGGAC">      1.00000000</i>
   <i type="int" name="NKREDX">     1</i>
   <i type="int" name="NKREDY">     1</i>
   <i type="int" name="NKREDZ">     1</i>
   <i type="logical" name="SHIFTRED"> F  </i>
   <i type="logical" name="ODDONLY"> F  </i>
   <i type="logical" name="EVENONLY"> F  </i>
   <i type="int" name="LMAXFOCK">     0</i>
   <i type="int" name="NMAXFOCKAE">     0</i>
   <i type="logical" name="LFOCKAEDFT"> F  </i>
   <i name="HFSCREEN">      0.00000000</i>
   <i name="HFSCREENC">      0.00000000</i>
   <i type="int" name="NBANDSGWLOW">     0</i>
  </separator>
  <separator name="vdW DFT" >
   <i type="logical" name="LUSE_VDW"> F  </i>
   <i name="Zab_VDW">     -0.84910000</i>
   <i name="PARAM1">      0.12340000</i>
   <i name="PARAM2">      1.00000000</i>
   <i name="PARAM3">      0.00000000</i>
  </separator>
  <separator name="model GW" >
   <i type="int" name="MODEL_GW">     0</i>
   <i name="MODEL_EPS0">     12.31354271</i>
   <i name="MODEL_ALPHA">      1.00000000</i>
  </separator>
  <separator name="linear response parameters" >
   <i type="logical" name="LEPSILON"> F  </i>
   <i type="logical" name="LRPA"> F  </i>
   <i type="logical" name="LNABLA"> F  </i>
   <i type="logical" name="LVEL"> F  </i>
   <i name="CSHIFT">      0.10000000</i>
   <i name="OMEGAMAX">     -1.00000000</i>
   <i name="DEG_THRESHOLD">      0.00200000</i>
   <i name="RTIME">     -0.10000000</i>
   <i name="WPLASMAI">      0.00000000</i>
   <v name="DFIELD">      0.00000000      0.00000000      0.00000000</v>
   <v name="WPLASMA">      0.00000000      0.00000000      0.00000000      0.00000000      0.00000000      0.00000000      0.00000000      0.00000000      0.00000000</v>
  </separator>
  <separator name="orbital magnetization" >
   <i type="logical" name="NUCIND"> F  </i>
   <v name="MAGPOS">      0.00000000      0.00000000      0.00000000</v>
   <i type="logical" name="LNICSALL"> T  </i>
   <i type="logical" name="ORBITALMAG"> F  </i>
   <i type="logical" name="LMAGBLOCH"> F  </i>
   <i type="logical" name="LCHIMAG"> F  </i>
   <i type="logical" name="LGAUGE"> T  </i>
   <i type="int" name="MAGATOM">     0</i>
   <v name="MAGDIPOL">      0.00000000      0.00000000      0.00000000</v>
   <v name="AVECCONST">      0.00000000      0.00000000      0.00000000</v>
  </separator>
  <separator name="response functions" >
   <i type="logical" name="LFINITE_TEMPERATURE"> F  </i>
   <i type="logical" name="LADDER"> F  </i>
   <i type="logical" name="LRPAFORCE"> F  </i>
   <i type="logical" name="LFXC"> F  </i>
   <i type="logical" name="LHARTREE"> T  </i>
   <i type="int" name="IBSE">     0</i>
   <v type="int" name="KPOINT">    -1     0     0     0</v>
   <i type="logical" name="LTCTC"> F  </i>
   <i type="logical" name="LTCTE"> F  </i>
   <i type="logical" name="LTETE"> F  </i>
   <i type="logical" name="LTRIPLET"> F  </i>
   <i type="logical" name="LFXCEPS"> F  </i>
   <i type="logical" name="LFXHEG"> F  </i>
   <i type="int" name="NATURALO">     2</i>
   <i type="logical" name="LHOLEGF"> F  </i>
   <i type="logical" name="L2ORDER"> F  </i>
   <i type="logical" name="LDMP1"> F  </i>
   <i type="logical" name="LMP2LT"> F  </i>
   <i type="logical" name="LSMP2LT"> F  </i>
   <i type="logical" name="LGWLF"> F  </i>
   <i name="ENCUTGW">     -2.00000000</i>
   <i name="ENCUTGWSOFT">     -2.00000000</i>
   <i name="ENCUTLF">     -1.00000000</i>
   <i type="logical" name="LESF_SPLINES"> F  </i>
   <i type="int" name="LMAXMP2">    -1</i>
   <i name="SCISSOR">      0.00000000</i>
   <i type="int" name="NOMEGA">     0</i>
   <i type="int" name="NOMEGAR">     0</i>
   <i type="int" name="NBANDSGW">    -1</i>
   <i type="int" name="NBANDSO">    -1</i>
   <i type="int" name="NBANDSV">    -1</i>
   <i type="int" name="NELMGW">     1</i>
   <i type="int" name="NELMHF">     1</i>
   <i type="int" name="DIM">     3</i>
   <i type="int" name="IESPILON">     4</i>
   <i type="int" name="ANTIRES">     0</i>
   <i name="OMEGAMAX">    -30.00000000</i>
   <i name="OMEGAMIN">    -30.00000000</i>
   <i name="OMEGATL">   -200.00000000</i>
   <i type="int" name="OMEGAGRID">     0</i>
   <i name="CSHIFT">     -0.10000000</i>
   <i type="logical" name="LSELFENERGY"> F  </i>
   <i type="logical" name="LSPECTRAL"> F  </i>
   <i type="logical" name="LSPECTRALGW"> F  </i>
   <i type="logical" name="LSINGLES"> F  </i>
   <i type="logical" name="LFERMIGW"> F  </i>
   <i type="logical" name="ODDONLYGW"> F  </i>
   <i type="logical" name="EVENONLYGW"> F  </i>
   <i type="int" name="NKREDLFX">     1</i>
   <i type="int" name="NKREDLFY">     1</i>
   <i type="int" name="NKREDLFZ">     1</i>
   <i type="int" name="MAXMEM">  2800</i>
   <i type="int" name="TELESCOPE">     0</i>
   <i type="int" name="NTAUPAR">    -1</i>
   <i type="int" name="NOMEGAPAR">    -1</i>
   <i name="DAMP_NEWTON">      0.80000001</i>
   <i name="LAMBDA">      1.00000000</i>
  </separator>
  <separator name="External order field" >
   <i name="OFIELD_KAPPA">      0.00000000</i>
   <v name="OFIELD_K">      0.00000000      0.00000000      0.00000000</v>
   <i name="OFIELD_Q6_NEAR">      0.00000000</i>
   <i name="OFIELD_Q6_FAR">      0.00000000</i>
   <i name="OFIELD_A">      0.00000000</i>
  </separator>
  <separator name="optional k-points parameters" >
   <i type="int" name="KPOINTS_OPT_MODE">     1</i>
   <i type="logical" name="LKPOINTS_OPT"> F  </i>
  </separator>
  <separator name="solvation model" >
   <i type="logical" name="LSOL"> F  </i>
  </separator>
 </parameters>
 <atominfo>
  <atoms>      15 </atoms>
  <types>       2 </types>
  <array name="atoms" >
   <dimension dim="1">ion</dimension>
   <field type="string">element</field>
   <field type="int">atomtype</field>
   <set>
    <rc><c>B </c><c>   1</c></rc>
    <rc><c>B </c><c>   1</c></rc>
    <rc><c>B </c><c>   1</c></rc>
    <rc><c>B </c><c>   1</c></rc>
    <rc><c>C </c><c>   2</c></rc>
    <rc><c>C </c><c>   2</c></rc>
    <rc><c>C </c><c>   2</c></rc>
    <rc><c>C </c><c>   2</c></rc>
    <rc><c>C </c><c>   2</c></rc>
    <rc><c>C </c><c>   2</c></rc>
    <rc><c>C </c><c>   2</c></rc>
    <rc><c>C </c><c>   2</c></rc>
    <rc><c>C </c><c>   2</c></rc>
    <rc><c>C </c><c>   2</c></rc>
    <rc><c>C </c><c>   2</c></rc>
   </set>
  </array>
  <array name="atomtypes" >
   <dimension dim="1">type</dimension>
   <field type="int">atomspertype</field>
   <field type="string">element</field>
   <field>mass</field>
   <field>valence</field>
   <field type="string">pseudopotential</field>
   <set>
    <rc><c>   4</c><c>B </c><c>     10.81100000</c><c>      3.00000000</c><c>  PAW_PBE B 06Sep2000                   </c></rc>
    <rc><c>  11</c><c>C </c><c>     12.01100000</c><c>      4.00000000</c><c>  PAW_PBE C 08Apr2002                   </c></rc>
   </set>
  </array>
 </atominfo>
 <structure name="initialpos" >
  <crystal>
   <varray name="basis" >
    <v>       4.21581167       2.43400000       0.00000000 </v>
    <v>      -4.21581167       2.43400000       0.00000000 </v>
    <v>       0.00000000       0.00000000      15.00000000 </v>
   </varray>
   <i name="volume">    307.83856782 </i>
   <varray name="rec_basis" >
    <v>       0.11860112       0.20542317       0.00000000 </v>
    <v>      -0.11860112       0.20542317       0.00000000 </v>
    <v>       0.00000000       0.00000000       0.06666667 </v>
   </varray>
  </crystal>
  <varray name="positions" >
   <v>       0.00415361       0.00267210       0.12034134 </v>
   <v>       0.35695335       0.00285503       0.09748893 </v>
   <v>       0.00423858       0.35550699       0.09749256 </v>
   <v>       0.65142295       0.65006557       0.09747688 </v>
   <v>       0.32808646       0.32671938       0.10030508 </v>
   <v>       0.68027775       0.00278085       0.10027562 </v>
   <v>       0.00416530       0.67883808       0.10026559 </v>
   <v>       0.16666600       0.33333300       0.33720000 </v>
   <v>       0.33333300       0.16666600       0.33720000 </v>
   <v>       0.16666600       0.83333300       0.33720000 </v>
   <v>       0.33333300       0.66666600       0.33720000 </v>
   <v>       0.66666600       0.33333300       0.33720000 </v>
   <v>       0.83333300       0.16666600       0.33720000 </v>
   <v>       0.66666600       0.83333300       0.33720000 </v>
   <v>       0.83333300       0.66666600       0.33720000 </v>
  </varray>
 </structure>
 <calculation>
  <scstep>
   <time name="dav">    5.70    5.74</time>
   <time name="total">    5.76    5.80</time>
   <energy>
    <i name="alphaZ">     57.78124218 </i>
    <i name="ewald">   4629.70658493 </i>
    <i name="hartreedc">  -6189.37890658 </i>
    <i name="XCdc">    174.66580077 </i>
    <i name="pawpsdc">   1365.87943566 </i>
    <i name="pawaedc">  -1368.52100941 </i>
    <i name="eentropy">     -0.02007585 </i>
    <i name="bandstr">   -371.71156086 </i>
    <i name="atom">   1903.26342058 </i>
    <i name="e_fr_energy">    201.66493142 </i>
    <i name="e_wo_entrp">    201.68500727 </i>
    <i name="e_0_energy">    201.67496935 </i>
   </energy>
  </scstep>
  <scstep>
   <time name="dav">    8.05    8.10</time>
   <time name="total">    8.05    8.10</time>
   <energy>
    <i name="e_fr_energy">   -115.56356892 </i>
    <i name="e_wo_entrp">   -115.56169288 </i>
    <i name="e_0_energy">   -115.56263090 </i>
   </energy>
  </scstep>
  <scstep>
   <time name="dav">   11.61   11.66</time>
   <time name="total">   11.61   11.67</time>
   <energy>
    <i name="e_fr_energy">   -128.99983311 </i>
    <i name="e_wo_entrp">   -128.99663733 </i>
    <i name="e_0_energy">   -128.99823522 </i>
   </energy>
  </scstep>
  <scstep>
   <time name="dav">    8.14    8.19</time>
   <time name="total">    8.14    8.19</time>
   <energy>
    <i name="e_fr_energy">   -129.02247277 </i>
    <i name="e_wo_entrp">   -129.01925630 </i>
    <i name="e_0_energy">   -129.02086453 </i>
   </energy>
  </scstep>
  <scstep>
   <time name="dav">   11.17   11.21</time>
   <time name="total">   11.43   11.49</time>
   <energy>
    <i name="e_fr_energy">   -129.02253827 </i>
    <i name="e_wo_entrp">   -129.01932170 </i>
    <i name="e_0_energy">   -129.02092999 </i>
   </energy>
  </scstep>
  <scstep>
   <time name="dav">   10.68   10.72</time>
   <time name="total">   10.98   11.04</time>
   <energy>
    <i name="e_fr_energy">    -91.87705257 </i>
    <i name="e_wo_entrp">    -91.86953525 </i>
    <i name="e_0_energy">    -91.87329391 </i>
   </energy>
  </scstep>
  <scstep>
   <time name="dav">    9.00    9.04</time>
   <time name="total">    9.29    9.35</time>
   <energy>
    <i name="e_fr_energy">   -100.31325067 </i>
    <i name="e_wo_entrp">   -100.30711888 </i>
    <i name="e_0_energy">   -100.31018478 </i>
   </energy>
  </scstep>
  <scstep>
   <time name="dav">   10.01   10.06</time>
   <time name="total">   10.30   10.36</time>
   <energy>
    <i name="e_fr_energy">   -110.46722862 </i>
    <i name="e_wo_entrp">   -110.46719447 </i>
    <i name="e_0_energy">   -110.46721155 </i>
   </energy>
  </scstep>
  <scstep>
   <time name="dav">    7.71    7.75</time>
   <time name="total">    8.00    8.05</time>
   <energy>
    <i name="e_fr_energy">   -117.14382039 </i>
    <i name="e_wo_entrp">   -117.14381596 </i>
    <i name="e_0_energy">   -117.14381817 </i>
   </energy>
  </scstep>
  <scstep>
   <time name="dav">    9.65    9.68</time>
   <time name="total">    9.93    9.98</time>
   <energy>
    <i name="e_fr_energy">   -123.49097905 </i>
    <i name="e_wo_entrp">   -123.49035482 </i>
    <i name="e_0_energy">   -123.49066694 </i>
   </energy>
  </scstep>
  <scstep>
   <time name="dav">   10.57   10.61</time>
   <time name="total">   10.87   10.92</time>
   <energy>
    <i name="e_fr_energy">   -125.28325874 </i>
    <i name="e_wo_entrp">   -125.28206509 </i>
    <i name="e_0_energy">   -125.28266192 </i>
   </energy>
  </scstep>
  <scstep>
   <time name="dav">    8.51    8.55</time>
   <time name="total">    8.81    8.85</time>
   <energy>
    <i name="e_fr_energy">   -125.40077635 </i>
    <i name="e_wo_entrp">   -125.39930377 </i>
    <i name="e_0_energy">   -125.40004006 </i>
   </energy>
  </scstep>
  <scstep>
   <time name="dav">    6.71    6.73</time>
   <time name="total">    7.00    7.03</time>
   <energy>
    <i name="e_fr_energy">   -125.42709149 </i>
    <i name="e_wo_entrp">   -125.42553085 </i>
    <i name="e_0_energy">   -125.42631117 </i>
   </energy>
  </scstep>
  <scstep>
   <time name="dav">    8.18    8.22</time>
   <time name="total">    8.47    8.52</time>
   <energy>
    <i name="e_fr_energy">   -125.45146406 </i>
    <i name="e_wo_entrp">   -125.44989772 </i>
    <i name="e_0_energy">   -125.45068089 </i>
   </energy>
  </scstep>
  <scstep>
   <time name="dav">    7.46    7.49</time>
   <time name="total">    7.75    7.79</time>
   <energy>
    <i name="e_fr_energy">   -125.45951009 </i>
    <i name="e_wo_entrp">   -125.45794294 </i>
    <i name="e_0_energy">   -125.45872651 </i>
   </energy>
  </scstep>
  <scstep>
   <time name="dav">    6.20    6.22</time>
   <time name="total">    6.51    6.54</time>
   <energy>
    <i name="e_fr_energy">   -125.46156356 </i>
    <i name="e_wo_entrp">   -125.45999636 </i>
    <i name="e_0_energy">   -125.46077996 </i>
   </energy>
  </scstep>
  <scstep>
   <time name="dav">    6.06    6.11</time>
   <time name="total">    6.35    6.40</time>
   <energy>
    <i name="e_fr_energy">   -125.46283236 </i>
    <i name="e_wo_entrp">   -125.46126518 </i>
    <i name="e_0_energy">   -125.46204877 </i>
   </energy>
  </scstep>
  <scstep>
   <time name="dav">    6.78    6.81</time>
   <time name="total">    7.07    7.11</time>
   <energy>
    <i name="e_fr_energy">   -125.46351123 </i>
    <i name="e_wo_entrp">   -125.46194406 </i>
    <i name="e_0_energy">   -125.46272764 </i>
   </energy>
  </scstep>
  <scstep>
   <time name="dav">    7.59    7.62</time>
   <time name="total">    7.88    7.93</time>
   <energy>
    <i name="e_fr_energy">   -125.46396981 </i>
    <i name="e_wo_entrp">   -125.46240263 </i>
    <i name="e_0_energy">   -125.46318622 </i>
   </energy>
  </scstep>
  <scstep>
   <time name="dav">    9.61    9.65</time>
   <time name="total">    9.90    9.95</time>
   <energy>
    <i name="e_fr_energy">   -125.46402885 </i>
    <i name="e_wo_entrp">   -125.46246166 </i>
    <i name="e_0_energy">   -125.46324525 </i>
   </energy>
  </scstep>
  <scstep>
   <time name="dav">    8.01    8.04</time>
   <time name="total">    8.30    8.34</time>
   <energy>
    <i name="e_fr_energy">   -125.46405239 </i>
    <i name="e_wo_entrp">   -125.46248520 </i>
    <i name="e_0_energy">   -125.46326879 </i>
   </energy>
  </scstep>
  <scstep>
   <time name="dav">    8.65    8.68</time>
   <time name="total">    8.95    8.99</time>
   <energy>
    <i name="e_fr_energy">   -125.46407154 </i>
    <i name="e_wo_entrp">   -125.46250435 </i>
    <i name="e_0_energy">   -125.46328795 </i>
   </energy>
  </scstep>
  <scstep>
   <time name="dav">    8.65    8.68</time>
   <time name="total">    8.94    8.98</time>
   <energy>
    <i name="e_fr_energy">   -125.46408843 </i>
    <i name="e_wo_entrp">   -125.46252123 </i>
    <i name="e_0_energy">   -125.46330483 </i>
   </energy>
  </scstep>
  <scstep>
   <time name="dav">    8.92    8.96</time>
   <time name="total">    9.22    9.26</time>
   <energy>
    <i name="e_fr_energy">   -125.46409212 </i>
    <i name="e_wo_entrp">   -125.46252493 </i>
    <i name="e_0_energy">   -125.46330853 </i>
   </energy>
  </scstep>
  <scstep>
   <time name="dav">    9.49    9.52</time>
   <time name="total">    9.78    9.82</time>
   <energy>
    <i name="e_fr_energy">   -125.46409314 </i>
    <i name="e_wo_entrp">   -125.46252595 </i>
    <i name="e_0_energy">   -125.46330954 </i>
   </energy>
  </scstep>
  <scstep>
   <time name="dav">    8.12    8.16</time>
   <time name="total">    8.41    8.46</time>
   <energy>
    <i name="e_fr_energy">   -125.46409369 </i>
    <i name="e_wo_entrp">   -125.46252650 </i>
    <i name="e_0_energy">   -125.46331010 </i>
   </energy>
  </scstep>
  <scstep>
   <time name="dav">    8.99    9.01</time>
   <time name="total">    9.28    9.31</time>
   <energy>
    <i name="e_fr_energy">   -125.46409390 </i>
    <i name="e_wo_entrp">   -125.46252670 </i>
    <i name="e_0_energy">   -125.46331030 </i>
   </energy>
  </scstep>
  <scstep>
   <time name="dav">    8.89    8.91</time>
   <time name="total">    9.18    9.21</time>
   <energy>
    <i name="e_fr_energy">   -125.46409403 </i>
    <i name="e_wo_entrp">   -125.46252684 </i>
    <i name="e_0_energy">   -125.46331043 </i>
   </energy>
  </scstep>
  <scstep>
   <time name="dav">    8.97    9.00</time>
   <time name="total">    9.27    9.31</time>
   <energy>
    <i name="e_fr_energy">   -125.46409407 </i>
    <i name="e_wo_entrp">   -125.46252688 </i>
    <i name="e_0_energy">   -125.46331047 </i>
   </energy>
  </scstep>
  <scstep>
   <time name="dav">    9.79    9.82</time>
   <time name="total">    9.82    9.86</time>
   <energy>
    <i name="alphaZ">     57.78124218 </i>
    <i name="ewald">   4629.70658493 </i>
    <i name="hartreedc">  -6386.57402636 </i>
    <i name="XCdc">    179.92542039 </i>
    <i name="pawpsdc">   5615.10825243 </i>
    <i name="pawaedc">  -5619.47109279 </i>
    <i name="eentropy">     -0.00156719 </i>
    <i name="bandstr">   -505.20232823 </i>
    <i name="atom">   1903.26342058 </i>
    <i name="e_fr_energy">   -125.46409407 </i>
    <i name="e_wo_entrp">   -125.46252688 </i>
    <i name="e_0_energy">   -125.46331048 </i>
   </energy>
  </scstep>
  <structure>
   <crystal>
    <varray name="basis" >
     <v>       4.21581167       2.43400000       0.00000000 </v>
     <v>      -4.21581167       2.43400000       0.00000000 </v>
     <v>       0.00000000       0.00000000      15.00000000 </v>
    </varray>
    <i name="volume">    307.83856782 </i>
    <varray name="rec_basis" >
     <v>       0.11860112       0.20542317       0.00000000 </v>
     <v>      -0.11860112       0.20542317       0.00000000 </v>
     <v>       0.00000000       0.00000000       0.06666667 </v>
    </varray>
   </crystal>
   <varray name="positions" >
    <v>       0.00415361       0.00267210       0.12034134 </v>
    <v>       0.35695335       0.00285503       0.09748893 </v>
    <v>       0.00423858       0.35550699       0.09749256 </v>
    <v>       0.65142295       0.65006557       0.09747688 </v>
    <v>       0.32808646       0.32671938       0.10030508 </v>
    <v>       0.68027775       0.00278085       0.10027562 </v>
    <v>       0.00416530       0.67883808       0.10026559 </v>
    <v>       0.16666600       0.33333300       0.33720000 </v>
    <v>       0.33333300       0.16666600       0.33720000 </v>
    <v>       0.16666600       0.83333300       0.33720000 </v>
    <v>       0.33333300       0.66666600       0.33720000 </v>
    <v>       0.66666600       0.33333300       0.33720000 </v>
    <v>       0.83333300       0.16666600       0.33720000 </v>
    <v>       0.66666600       0.83333300       0.33720000 </v>
    <v>       0.83333300       0.66666600       0.33720000 </v>
   </varray>
  </structure>
  <varray name="forces" >
   <v>      -0.00386824       0.00522410      -0.46811986 </v>
   <v>      -0.10087900      -0.06323571       0.12403986 </v>
   <v>       0.10053937      -0.06218252       0.12378741 </v>
   <v>       0.00261301       0.11713902       0.12645261 </v>
   <v>       0.00299125      -0.38384075       0.00583080 </v>
   <v>       0.33086875       0.19307206       0.00924226 </v>
   <v>      -0.33178521       0.19523651       0.01044492 </v>
   <v>      -0.01451227       0.00055343       0.01985859 </v>
   <v>       0.01430982       0.00070777       0.02019015 </v>
   <v>       0.00819152       0.01123958       0.02072186 </v>
   <v>      -0.00036982       0.00041368      -0.02638438 </v>
   <v>       0.00060339       0.00019208      -0.02638949 </v>
   <v>      -0.00822700       0.01098460       0.02067638 </v>
   <v>       0.00605732      -0.01265575       0.01996874 </v>
   <v>      -0.00653289      -0.01284809       0.01968013 </v>
  </varray>
  <varray name="stress" >
   <v>     -28.89921343       0.01023262      -0.01516549 </v>
   <v>       0.01023263     -28.88745751      -0.01665208 </v>
   <v>      -0.01516548      -0.01665209      -1.67042131 </v>
  </varray>
  <energy>
   <i name="e_fr_energy">   -127.04784700 </i>
   <i name="e_wo_entrp">   -127.04627981 </i>
   <i name="e_0_energy">   -127.04706340 </i>
  </energy>
  <time name="totalsc">  270.02  271.40</time>
 </calculation>
 <calculation>
  <scstep>
   <time name="dav">    5.53    5.55</time>
   <time name="total">    5.83    5.86</time>
   <energy>
    <i name="alphaZ">     57.78124218 </i>
    <i name="ewald">   4633.00101792 </i>
    <i name="hartreedc">  -6388.33919008 </i>
    <i name="XCdc">    180.01442983 </i>
    <i name="pawpsdc">   5615.10848558 </i>
    <i name="pawaedc">  -5619.47132605 </i>
    <i name="eentropy">     -0.00156719 </i>
    <i name="bandstr">   -506.83506977 </i>
    <i name="atom">   1903.26342058 </i>
    <i name="e_fr_energy">   -125.47855700 </i>
    <i name="e_wo_entrp">   -125.47698981 </i>
    <i name="e_0_energy">   -125.47777340 </i>
   </energy>
  </scstep>
  <scstep>
   <time name="dav">   10.85   10.88</time>
   <time name="total">   11.14   11.18</time>
   <energy>
    <i name="e_fr_energy">   -125.46858638 </i>
    <i name="e_wo_entrp">   -125.46701919 </i>
    <i name="e_0_energy">   -125.46780279 </i>
   </energy>
  </scstep>
  <scstep>
   <time name="dav">    8.43    8.46</time>
   <time name="total">    8.73    8.77</time>
   <energy>
    <i name="e_fr_energy">   -125.46752154 </i>
    <i name="e_wo_entrp">   -125.46595435 </i>
    <i name="e_0_energy">   -125.46673794 </i>
   </energy>
  </scstep>
  <scstep>
   <time name="dav">   11.06   11.11</time>
   <time name="total">   11.36   11.41</time>
   <energy>
    <i name="e_fr_energy">   -125.46747795 </i>
    <i name="e_wo_entrp">   -125.46591076 </i>
    <i name="e_0_energy">   -125.46669436 </i>
   </energy>
  </scstep>
  <scstep>
   <time name="dav">   10.37   10.40</time>
   <time name="total">   10.67   10.71</time>
   <energy>
    <i name="e_fr_energy">   -125.46748218 </i>
    <i name="e_wo_entrp">   -125.46591498 </i>
    <i name="e_0_energy">   -125.46669858 </i>
   </energy>
  </scstep>
  <scstep>
   <time name="dav">    8.69    8.72</time>
   <time name="total">    8.98    9.02</time>
   <energy>
    <i name="e_fr_energy">   -125.46748216 </i>
    <i name="e_wo_entrp">   -125.46591497 </i>
    <i name="e_0_energy">   -125.46669856 </i>
   </energy>
  </scstep>
  <scstep>
   <time name="dav">    9.49    9.52</time>
   <time name="total">    9.79    9.83</time>
   <energy>
    <i name="e_fr_energy">   -125.46748253 </i>
    <i name="e_wo_entrp">   -125.46591534 </i>
    <i name="e_0_energy">   -125.46669894 </i>
   </energy>
  </scstep>
  <scstep>
   <time name="dav">    8.55    8.57</time>
   <time name="total">    8.84    8.87</time>
   <energy>
    <i name="e_fr_energy">   -125.46748299 </i>
    <i name="e_wo_entrp">   -125.46591580 </i>
    <i name="e_0_energy">   -125.46669939 </i>
   </energy>
  </scstep>
  <scstep>
   <time name="dav">    9.09    9.12</time>
   <time name="total">    9.38    9.42</time>
   <energy>
    <i name="e_fr_energy">   -125.46748333 </i>
    <i name="e_wo_entrp">   -125.46591614 </i>
    <i name="e_0_energy">   -125.46669974 </i>
   </energy>
  </scstep>
  <scstep>
   <time name="dav">    8.62    8.64</time>
   <time name="total">    8.91    8.95</time>
   <energy>
    <i name="e_fr_energy">   -125.46748383 </i>
    <i name="e_wo_entrp">   -125.46591664 </i>
    <i name="e_0_energy">   -125.46670023 </i>
   </energy>
  </scstep>
  <scstep>
   <time name="dav">    9.87    9.90</time>
   <time name="total">   10.16   10.20</time>
   <energy>
    <i name="e_fr_energy">   -125.46748408 </i>
    <i name="e_wo_entrp">   -125.46591689 </i>
    <i name="e_0_energy">   -125.46670049 </i>
   </energy>
  </scstep>
  <scstep>
   <time name="dav">    8.36    8.39</time>
   <time name="total">    8.66    8.71</time>
   <energy>
    <i name="e_fr_energy">   -125.46748433 </i>
    <i name="e_wo_entrp">   -125.46591714 </i>
    <i name="e_0_energy">   -125.46670073 </i>
   </energy>
  </scstep>
  <scstep>
   <time name="dav">    9.97   10.00</time>
   <time name="total">   10.26   10.31</time>
   <energy>
    <i name="e_fr_energy">   -125.46748440 </i>
    <i name="e_wo_entrp">   -125.46591721 </i>
    <i name="e_0_energy">   -125.46670081 </i>
   </energy>
  </scstep>
  <scstep>
   <time name="dav">    9.00    9.03</time>
   <time name="total">    9.29    9.34</time>
   <energy>
    <i name="e_fr_energy">   -125.46748443 </i>
    <i name="e_wo_entrp">   -125.46591724 </i>
    <i name="e_0_energy">   -125.46670083 </i>
   </energy>
  </scstep>
  <scstep>
   <time name="dav">    9.47    9.50</time>
   <time name="total">    9.77    9.81</time>
   <energy>
    <i name="e_fr_energy">   -125.46748445 </i>
    <i name="e_wo_entrp">   -125.46591726 </i>
    <i name="e_0_energy">   -125.46670086 </i>
   </energy>
  </scstep>
  <scstep>
   <time name="dav">    9.75    9.78</time>
   <time name="total">    9.79    9.82</time>
   <energy>
    <i name="alphaZ">     57.78124218 </i>
    <i name="ewald">   4633.00101792 </i>
    <i name="hartreedc">  -6389.15254048 </i>
    <i name="XCdc">    180.03229849 </i>
    <i name="pawpsdc">   5643.71427629 </i>
    <i name="pawaedc">  -5648.08651416 </i>
    <i name="eentropy">     -0.00156719 </i>
    <i name="bandstr">   -506.01911809 </i>
    <i name="atom">   1903.26342058 </i>
    <i name="e_fr_energy">   -125.46748446 </i>
    <i name="e_wo_entrp">   -125.46591727 </i>
    <i name="e_0_energy">   -125.46670086 </i>
   </energy>
  </scstep>
  <structure>
   <crystal>
    <varray name="basis" >
     <v>       4.21581167       2.43400000       0.00000000 </v>
     <v>      -4.21581167       2.43400000       0.00000000 </v>
     <v>       0.00000000       0.00000000      15.00000000 </v>
    </varray>
    <i name="volume">    307.83856782 </i>
    <varray name="rec_basis" >
     <v>       0.11860112       0.20542317       0.00000000 </v>
     <v>      -0.11860112       0.20542317       0.00000000 </v>
     <v>       0.00000000       0.00000000       0.06666667 </v>
    </varray>
   </crystal>
   <varray name="positions" >
    <v>       0.00418325       0.00274601       0.11883578 </v>
    <v>       0.35574948       0.00280555       0.09788787 </v>
    <v>       0.00419759       0.35431550       0.09789069 </v>
    <v>       0.65259877       0.65121149       0.09788357 </v>
    <v>       0.32429965       0.32289834       0.10032383 </v>
    <v>       0.68408423       0.00280112       0.10030535 </v>
    <v>       0.00420177       0.68267126       0.10029918 </v>
    <v>       0.16658845       0.33342152       0.33726387 </v>
    <v>       0.33342189       0.16659114       0.33726494 </v>
    <v>       0.16682425       0.83339752       0.33726665 </v>
    <v>       0.33333498       0.66667222       0.33711514 </v>
    <v>       0.66667136       0.33333145       0.33711513 </v>
    <v>       0.83339479       0.16682193       0.33726650 </v>
    <v>       0.66657524       0.83317292       0.33726422 </v>
    <v>       0.83316829       0.66657605       0.33726329 </v>
   </varray>
  </structure>
  <varray name="forces" >
   <v>      -0.00172069      -0.00027832      -0.22291372 </v>
   <v>       0.24263428       0.13861388       0.07111459 </v>
   <v>      -0.24374981       0.14031581       0.07095037 </v>
   <v>       0.00126817      -0.27477199       0.07275921 </v>
   <v>       0.00051024       0.58487107      -0.02135641 </v>
   <v>      -0.50477860      -0.29351012      -0.01901558 </v>
   <v>       0.50634982      -0.29377453      -0.01857721 </v>
   <v>       0.05257336      -0.00167817       0.01056099 </v>
   <v>      -0.05246546      -0.00214912       0.01064291 </v>
   <v>      -0.02926790      -0.04289339       0.01071921 </v>
   <v>       0.00115206      -0.00207092       0.00175064 </v>
   <v>      -0.00240642      -0.00135429       0.00175363 </v>
   <v>       0.02887291      -0.04201968       0.01067242 </v>
   <v>      -0.02376358       0.04503746       0.01048783 </v>
   <v>       0.02479162       0.04566230       0.01045113 </v>
  </varray>
  <varray name="stress" >
   <v>     -26.04828998       0.00182474      -0.01139321 </v>
   <v>       0.00182473     -26.06535820      -0.02475070 </v>
   <v>      -0.01139322      -0.02475072      -1.24453946 </v>
  </varray>
  <energy>
   <i name="e_fr_energy">   -127.05041665 </i>
   <i name="e_wo_entrp">   -127.04884946 </i>
   <i name="e_0_energy">   -127.04963306 </i>
  </energy>
  <time name="totalsc">  156.33  157.02</time>
 </calculation>
 <calculation>
  <scstep>
   <time name="dav">    5.54    5.57</time>
   <time name="total">    5.84    5.88</time>
   <energy>
    <i name="alphaZ">     57.78124218 </i>
    <i name="ewald">   4631.43586572 </i>
    <i name="hartreedc">  -6388.29973210 </i>
    <i name="XCdc">    179.98989909 </i>
    <i name="pawpsdc">   5643.71420725 </i>
    <i name="pawaedc">  -5648.08644511 </i>
    <i name="eentropy">     -0.00156719 </i>
    <i name="bandstr">   -505.27360073 </i>
    <i name="atom">   1903.26342058 </i>
    <i name="e_fr_energy">   -125.47671031 </i>
    <i name="e_wo_entrp">   -125.47514312 </i>
    <i name="e_0_energy">   -125.47592672 </i>
   </energy>
  </scstep>
  <scstep>
   <time name="dav">   10.52   10.55</time>
   <time name="total">   10.81   10.86</time>
   <energy>
    <i name="e_fr_energy">   -125.47454423 </i>
    <i name="e_wo_entrp">   -125.47297704 </i>
    <i name="e_0_energy">   -125.47376064 </i>
   </energy>
  </scstep>
  <scstep>
   <time name="dav">    9.79    9.82</time>
   <time name="total">   10.08   10.13</time>
   <energy>
    <i name="e_fr_energy">   -125.47432308 </i>
    <i name="e_wo_entrp">   -125.47275588 </i>
    <i name="e_0_energy">   -125.47353948 </i>
   </energy>
  </scstep>
  <scstep>
   <time name="dav">    9.23    9.26</time>
   <time name="total">    9.52    9.56</time>
   <energy>
    <i name="e_fr_energy">   -125.47431386 </i>
    <i name="e_wo_entrp">   -125.47274667 </i>
    <i name="e_0_energy">   -125.47353027 </i>
   </energy>
  </scstep>
  <scstep>
   <time name="dav">   10.20   10.23</time>
   <time name="total">   10.49   10.53</time>
   <energy>
    <i name="e_fr_energy">   -125.47431464 </i>
    <i name="e_wo_entrp">   -125.47274744 </i>
    <i name="e_0_energy">   -125.47353104 </i>
   </energy>
  </scstep>
  <scstep>
   <time name="dav">    7.75    7.78</time>
   <time name="total">    8.04    8.09</time>
   <energy>
    <i name="e_fr_energy">   -125.47431467 </i>
    <i name="e_wo_entrp">   -125.47274748 </i>
    <i name="e_0_energy">   -125.47353108 </i>
   </energy>
  </scstep>
  <scstep>
   <time name="dav">    9.38    9.40</time>
   <time name="total">    9.67    9.71</time>
   <energy>
    <i name="e_fr_energy">   -125.47431483 </i>
    <i name="e_wo_entrp">   -125.47274763 </i>
    <i name="e_0_energy">   -125.47353123 </i>
   </energy>
  </scstep>
  <scstep>
   <time name="dav">    8.52    8.54</time>
   <time name="total">    8.81    8.85</time>
   <energy>
    <i name="e_fr_energy">   -125.47431499 </i>
    <i name="e_wo_entrp">   -125.47274780 </i>
    <i name="e_0_energy">   -125.47353139 </i>
   </energy>
  </scstep>
  <scstep>
   <time name="dav">    8.74    8.78</time>
   <time name="total">    9.04    9.08</time>
   <energy>
    <i name="e_fr_energy">   -125.47431516 </i>
    <i name="e_wo_entrp">   -125.47274796 </i>
    <i name="e_0_energy">   -125.47353156 </i>
   </energy>
  </scstep>
  <scstep>
   <time name="dav">    8.25    8.28</time>
   <time name="total">    8.54    8.58</time>
   <energy>
    <i name="e_fr_energy">   -125.47431536 </i>
    <i name="e_wo_entrp">   -125.47274816 </i>
    <i name="e_0_energy">   -125.47353176 </i>
   </energy>
  </scstep>
  <scstep>
   <time name="dav">    9.06    9.08</time>
   <time name="total">    9.35    9.39</time>
   <energy>
    <i name="e_fr_energy">   -125.47431550 </i>
    <i name="e_wo_entrp">   -125.47274831 </i>
    <i name="e_0_energy">   -125.47353190 </i>
   </energy>
  </scstep>
  <scstep>
   <time name="dav">    8.57    8.60</time>
   <time name="total">    8.87    8.91</time>
   <energy>
    <i name="e_fr_energy">   -125.47431564 </i>
    <i name="e_wo_entrp">   -125.47274845 </i>
    <i name="e_0_energy">   -125.47353205 </i>
   </energy>
  </scstep>
  <scstep>
   <time name="dav">    9.43    9.45</time>
   <time name="total">    9.72    9.75</time>
   <energy>
    <i name="e_fr_energy">   -125.47431569 </i>
    <i name="e_wo_entrp">   -125.47274850 </i>
    <i name="e_0_energy">   -125.47353209 </i>
   </energy>
  </scstep>
  <scstep>
   <time name="dav">    9.77    9.81</time>
   <time name="total">   10.07   10.11</time>
   <energy>
    <i name="e_fr_energy">   -125.47431570 </i>
    <i name="e_wo_entrp">   -125.47274851 </i>
    <i name="e_0_energy">   -125.47353211 </i>
   </energy>
  </scstep>
  <scstep>
   <time name="dav">    9.75    9.78</time>
   <time name="total">    9.79    9.82</time>
   <energy>
    <i name="alphaZ">     57.78124218 </i>
    <i name="ewald">   4631.43586572 </i>
    <i name="hartreedc">  -6387.92883921 </i>
    <i name="XCdc">    179.98162118 </i>
    <i name="pawpsdc">   5629.87390315 </i>
    <i name="pawaedc">  -5634.24148851 </i>
    <i name="eentropy">     -0.00156719 </i>
    <i name="bandstr">   -505.63847361 </i>
    <i name="atom">   1903.26342058 </i>
    <i name="e_fr_energy">   -125.47431571 </i>
    <i name="e_wo_entrp">   -125.47274852 </i>
    <i name="e_0_energy">   -125.47353211 </i>
   </energy>
  </scstep>
  <structure>
   <crystal>
    <varray name="basis" >
     <v>       4.21581167       2.43400000       0.00000000 </v>
     <v>      -4.21581167       2.43400000       0.00000000 </v>
     <v>       0.00000000       0.00000000      15.00000000 </v>
    </varray>
    <i name="volume">    307.83856782 </i>
    <varray name="rec_basis" >
     <v>       0.11860112       0.20542317       0.00000000 </v>
     <v>      -0.11860112       0.20542317       0.00000000 </v>
     <v>       0.00000000       0.00000000       0.06666667 </v>
    </varray>
   </crystal>
   <varray name="positions" >
    <v>       0.00416953       0.00271181       0.11953235 </v>
    <v>       0.35630647       0.00282844       0.09770330 </v>
    <v>       0.00421655       0.35486676       0.09770649 </v>
    <v>       0.65205476       0.65068131       0.09769541 </v>
    <v>       0.32605168       0.32466620       0.10031515 </v>
    <v>       0.68232310       0.00279174       0.10029159 </v>
    <v>       0.00418490       0.68089778       0.10028364 </v>
    <v>       0.16662433       0.33338056       0.33723432 </v>
    <v>       0.33338076       0.16662577       0.33723489 </v>
    <v>       0.16675104       0.83336767       0.33723581 </v>
    <v>       0.33333407       0.66666934       0.33715440 </v>
    <v>       0.66666888       0.33333217       0.33715439 </v>
    <v>       0.83336620       0.16674979       0.33723573 </v>
    <v>       0.66661723       0.83324698       0.33723451 </v>
    <v>       0.83324450       0.66661767       0.33723401 </v>
   </varray>
  </structure>
  <varray name="forces" >
   <v>      -0.00280340       0.00243657      -0.33450483 </v>
   <v>       0.08862395       0.04798786       0.09528742 </v>
   <v>      -0.08942722       0.04939935       0.09508232 </v>
   <v>       0.00190651      -0.09914277       0.09729613 </v>
   <v>       0.00168848       0.13671416      -0.00906827 </v>
   <v>      -0.11834160      -0.06836107      -0.00627061 </v>
   <v>       0.11885080      -0.06756590      -0.00549625 </v>
   <v>       0.02159265      -0.00067986       0.01486576 </v>
   <v>      -0.02162799      -0.00086154       0.01506351 </v>
   <v>      -0.01198941      -0.01788290       0.01534939 </v>
   <v>       0.00044731      -0.00092432      -0.01125188 </v>
   <v>      -0.00101294      -0.00064193      -0.01125277 </v>
   <v>       0.01175934      -0.01752948       0.01530259 </v>
   <v>      -0.00996674       0.01840122       0.01487521 </v>
   <v>       0.01030026       0.01865061       0.01472228 </v>
  </varray>
  <varray name="stress" >
   <v>     -27.51466240       0.00565968      -0.01324440 </v>
   <v>       0.00565968     -27.51997389      -0.02062495 </v>
   <v>      -0.01324437      -0.02062493      -1.42938486 </v>
  </varray>
  <energy>
   <i name="e_fr_energy">   -127.05761990 </i>
   <i name="e_wo_entrp">   -127.05605271 </i>
   <i name="e_0_energy">   -127.05683630 </i>
  </energy>
  <time name="totalsc">  143.39  144.02</time>
 </calculation>
 <calculation>
  <scstep>
   <time name="dav">    5.52    5.54</time>
   <time name="total">    5.82    5.85</time>
   <energy>
    <i name="alphaZ">     57.78124218 </i>
    <i name="ewald">   4630.86191049 </i>
    <i name="hartreedc">  -6387.07080835 </i>
    <i name="XCdc">    180.00229652 </i>
    <i name="pawpsdc">   5629.87394114 </i>
    <i name="pawaedc">  -5634.24152653 </i>
    <i name="eentropy">     -0.00156719 </i>
    <i name="bandstr">   -505.95241494 </i>
    <i name="atom">   1903.26342058 </i>
    <i name="e_fr_energy">   -125.48350610 </i>
    <i name="e_wo_entrp">   -125.48193891 </i>
    <i name="e_0_energy">   -125.48272250 </i>
   </energy>
  </scstep>
  <scstep>
   <time name="dav">   10.92   10.95</time>
   <time name="total">   11.21   11.26</time>
   <energy>
    <i name="e_fr_energy">   -125.48361149 </i>
    <i name="e_wo_entrp">   -125.48204430 </i>
    <i name="e_0_energy">   -125.48282790 </i>
   </energy>
  </scstep>
  <scstep>
   <time name="dav">    8.11    8.13</time>
   <time name="total">    8.40    8.44</time>
   <energy>
    <i name="e_fr_energy">   -125.48361022 </i>
    <i name="e_wo_entrp">   -125.48204303 </i>
    <i name="e_0_energy">   -125.48282662 </i>
   </energy>
  </scstep>
  <scstep>
   <time name="dav">   11.23   11.26</time>
   <time name="total">   11.52   11.56</time>
   <energy>
    <i name="e_fr_energy">   -125.48361231 </i>
    <i name="e_wo_entrp">   -125.48204512 </i>
    <i name="e_0_energy">   -125.48282872 </i>
   </energy>
  </scstep>
  <scstep>
   <time name="dav">    8.48    8.51</time>
   <time name="total">    8.78    8.81</time>
   <energy>
    <i name="e_fr_energy">   -125.48361253 </i>
    <i name="e_wo_entrp">   -125.48204534 </i>
    <i name="e_0_energy">   -125.48282894 </i>
   </energy>
  </scstep>
  <scstep>
   <time name="dav">    9.23    9.25</time>
   <time name="total">    9.52    9.56</time>
   <energy>
    <i name="e_fr_energy">   -125.48361261 </i>
    <i name="e_wo_entrp">   -125.48204542 </i>
    <i name="e_0_energy">   -125.48282901 </i>
   </energy>
  </scstep>
  <scstep>
   <time name="dav">    8.32    8.35</time>
   <time name="total">    8.62    8.66</time>
   <energy>
    <i name="e_fr_energy">   -125.48361276 </i>
    <i name="e_wo_entrp">   -125.48204557 </i>
    <i name="e_0_energy">   -125.48282917 </i>
   </energy>
  </scstep>
  <scstep>
   <time name="dav">    9.85    9.88</time>
   <time name="total">   10.15   10.19</time>
   <energy>
    <i name="e_fr_energy">   -125.48361295 </i>
    <i name="e_wo_entrp">   -125.48204576 </i>
    <i name="e_0_energy">   -125.48282936 </i>
   </energy>
  </scstep>
  <scstep>
   <time name="dav">    8.71    8.74</time>
   <time name="total">    9.00    9.04</time>
   <energy>
    <i name="e_fr_energy">   -125.48361309 </i>
    <i name="e_wo_entrp">   -125.48204590 </i>
    <i name="e_0_energy">   -125.48282950 </i>
   </energy>
  </scstep>
  <scstep>
   <time name="dav">    9.44    9.48</time>
   <time name="total">    9.74    9.78</time>
   <energy>
    <i name="e_fr_energy">   -125.48361324 </i>
    <i name="e_wo_entrp">   -125.48204605 </i>
    <i name="e_0_energy">   -125.48282964 </i>
   </energy>
  </scstep>
  <scstep>
   <time name="dav">    9.86    9.89</time>
   <time name="total">   10.15   10.20</time>
   <energy>
    <i name="e_fr_energy">   -125.48361335 </i>
    <i name="e_wo_entrp">   -125.48204616 </i>
    <i name="e_0_energy">   -125.48282976 </i>
   </energy>
  </scstep>
  <scstep>
   <time name="dav">    8.42    8.45</time>
   <time name="total">    8.71    8.75</time>
   <energy>
    <i name="e_fr_energy">   -125.48361352 </i>
    <i name="e_wo_entrp">   -125.48204633 </i>
    <i name="e_0_energy">   -125.48282993 </i>
   </energy>
  </scstep>
  <scstep>
   <time name="dav">    9.08    9.12</time>
   <time name="total">    9.38    9.43</time>
   <energy>
    <i name="e_fr_energy">   -125.48361365 </i>
    <i name="e_wo_entrp">   -125.48204646 </i>
    <i name="e_0_energy">   -125.48283006 </i>
   </energy>
  </scstep>
  <scstep>
   <time name="dav">    8.08    8.10</time>
   <time name="total">    8.37    8.41</time>
   <energy>
    <i name="e_fr_energy">   -125.48361372 </i>
    <i name="e_wo_entrp">   -125.48204653 </i>
    <i name="e_0_energy">   -125.48283013 </i>
   </energy>
  </scstep>
  <scstep>
   <time name="dav">   10.21   10.25</time>
   <time name="total">   10.51   10.56</time>
   <energy>
    <i name="e_fr_energy">   -125.48361374 </i>
    <i name="e_wo_entrp">   -125.48204655 </i>
    <i name="e_0_energy">   -125.48283014 </i>
   </energy>
  </scstep>
  <scstep>
   <time name="dav">    9.26    9.28</time>
   <time name="total">    9.29    9.32</time>
   <energy>
    <i name="alphaZ">     57.78124218 </i>
    <i name="ewald">   4630.86191049 </i>
    <i name="hartreedc">  -6387.03065078 </i>
    <i name="XCdc">    180.00045955 </i>
    <i name="pawpsdc">   5635.78929778 </i>
    <i name="pawaedc">  -5640.15894025 </i>
    <i name="eentropy">     -0.00156719 </i>
    <i name="bandstr">   -505.98878610 </i>
    <i name="atom">   1903.26342058 </i>
    <i name="e_fr_energy">   -125.48361374 </i>
    <i name="e_wo_entrp">   -125.48204655 </i>
    <i name="e_0_energy">   -125.48283015 </i>
   </energy>
  </scstep>
  <structure>
   <crystal>
    <varray name="basis" >
     <v>       4.21581167       2.43400000       0.00000000 </v>
     <v>      -4.21581167       2.43400000       0.00000000 </v>
     <v>       0.00000000       0.00000000      15.00000000 </v>
    </varray>
    <i name="volume">    307.83856782 </i>
    <varray name="rec_basis" >
     <v>       0.11860112       0.20542317       0.00000000 </v>
     <v>      -0.11860112       0.20542317       0.00000000 </v>
     <v>       0.00000000       0.00000000       0.06666667 </v>
    </varray>
   </crystal>
   <varray name="positions" >
    <v>       0.00418510       0.00276876       0.11813888 </v>
    <v>       0.35686459       0.00278614       0.09809194 </v>
    <v>       0.00418513       0.35544518       0.09809431 </v>
    <v>       0.65149887       0.65009734       0.09809207 </v>
    <v>       0.32624061       0.32482811       0.10029388 </v>
    <v>       0.68214865       0.00279703       0.10028153 </v>
    <v>       0.00420447       0.68073523       0.10027690 </v>
    <v>       0.16670884       0.33328687       0.33729540 </v>
    <v>       0.33328535       0.16670958       0.33729685 </v>
    <v>       0.16657181       0.83328697       0.33729908 </v>
    <v>       0.33332863       0.66666043       0.33709805 </v>
    <v>       0.66665933       0.33333122       0.33709803 </v>
    <v>       0.83328673       0.16657429       0.33729882 </v>
    <v>       0.66670582       0.83341986       0.33729572 </v>
    <v>       0.83342007       0.66670699       0.33729452 </v>
   </varray>
  </structure>
  <varray name="forces" >
   <v>      -0.00018511      -0.00017295      -0.30010570 </v>
   <v>       0.05756609       0.03316009       0.05533763 </v>
   <v>      -0.05759396       0.03422260       0.05527337 </v>
   <v>       0.00071952      -0.06445493       0.05619477 </v>
   <v>      -0.00021771       0.12120218       0.02230010 </v>
   <v>      -0.10346135      -0.06136512       0.02397037 </v>
   <v>       0.10363471      -0.06122508       0.02429153 </v>
   <v>      -0.04921998      -0.00262332       0.00682103 </v>
   <v>       0.04901939      -0.00238024       0.00682474 </v>
   <v>       0.02426107       0.04264215       0.00677230 </v>
   <v>      -0.00149583       0.00116313       0.01104432 </v>
   <v>       0.00214913       0.00061776       0.01104839 </v>
   <v>      -0.02422235       0.04188208       0.00673829 </v>
   <v>       0.02617366      -0.04110529       0.00672871 </v>
   <v>      -0.02712728      -0.04156306       0.00676014 </v>
  </varray>
  <varray name="stress" >
   <v>     -27.09971142       0.00207646      -0.00858821 </v>
   <v>       0.00207649     -27.09858519      -0.02391642 </v>
   <v>      -0.00858822      -0.02391645      -1.40924077 </v>
  </varray>
  <energy>
   <i name="e_fr_energy">   -127.06660529 </i>
   <i name="e_wo_entrp">   -127.06503810 </i>
   <i name="e_0_energy">   -127.06582170 </i>
  </energy>
  <time name="totalsc">  153.92  154.60</time>
 </calculation>
 <calculation>
  <scstep>
   <time name="dav">    5.54    5.56</time>
   <time name="total">    5.84    5.87</time>
   <energy>
    <i name="alphaZ">     57.78124218 </i>
    <i name="ewald">   4628.40867812 </i>
    <i name="hartreedc">  -6383.89981843 </i>
    <i name="XCdc">    180.05079414 </i>
    <i name="pawpsdc">   5635.78932244 </i>
    <i name="pawaedc">  -5640.15896493 </i>
    <i name="eentropy">     -0.00156714 </i>
    <i name="bandstr">   -506.73120471 </i>
    <i name="atom">   1903.26342058 </i>
    <i name="e_fr_energy">   -125.49809776 </i>
    <i name="e_wo_entrp">   -125.49653062 </i>
    <i name="e_0_energy">   -125.49731419 </i>
   </energy>
  </scstep>
  <scstep>
   <time name="dav">   11.61   11.65</time>
   <time name="total">   11.91   11.96</time>
   <energy>
    <i name="e_fr_energy">   -125.49926762 </i>
    <i name="e_wo_entrp">   -125.49770047 </i>
    <i name="e_0_energy">   -125.49848404 </i>
   </energy>
  </scstep>
  <scstep>
   <time name="dav">    8.91    8.94</time>
   <time name="total">    9.20    9.25</time>
   <energy>
    <i name="e_fr_energy">   -125.49923249 </i>
    <i name="e_wo_entrp">   -125.49766534 </i>
    <i name="e_0_energy">   -125.49844892 </i>
   </energy>
  </scstep>
  <scstep>
   <time name="dav">   11.46   11.50</time>
   <time name="total">   11.76   11.81</time>
   <energy>
    <i name="e_fr_energy">   -125.49925578 </i>
    <i name="e_wo_entrp">   -125.49768863 </i>
    <i name="e_0_energy">   -125.49847221 </i>
   </energy>
  </scstep>
  <scstep>
   <time name="dav">    9.17    9.20</time>
   <time name="total">    9.46    9.51</time>
   <energy>
    <i name="e_fr_energy">   -125.49925891 </i>
    <i name="e_wo_entrp">   -125.49769176 </i>
    <i name="e_0_energy">   -125.49847533 </i>
   </energy>
  </scstep>
  <scstep>
   <time name="dav">    9.80    9.83</time>
   <time name="total">   10.10   10.14</time>
   <energy>
    <i name="e_fr_energy">   -125.49925913 </i>
    <i name="e_wo_entrp">   -125.49769198 </i>
    <i name="e_0_energy">   -125.49847555 </i>
   </energy>
  </scstep>
  <scstep>
   <time name="dav">    9.57    9.61</time>
   <time name="total">    9.87    9.92</time>
   <energy>
    <i name="e_fr_energy">   -125.49925976 </i>
    <i name="e_wo_entrp">   -125.49769261 </i>
    <i name="e_0_energy">   -125.49847619 </i>
   </energy>
  </scstep>
  <scstep>
   <time name="dav">    9.52    9.54</time>
   <time name="total">    9.81    9.85</time>
   <energy>
    <i name="e_fr_energy">   -125.49926028 </i>
    <i name="e_wo_entrp">   -125.49769313 </i>
    <i name="e_0_energy">   -125.49847671 </i>
   </energy>
  </scstep>
  <scstep>
   <time name="dav">    9.57    9.60</time>
   <time name="total">    9.87    9.92</time>
   <energy>
    <i name="e_fr_energy">   -125.49926067 </i>
    <i name="e_wo_entrp">   -125.49769353 </i>
    <i name="e_0_energy">   -125.49847710 </i>
   </energy>
  </scstep>
  <scstep>
   <time name="dav">    8.87    8.89</time>
   <time name="total">    9.17    9.21</time>
   <energy>
    <i name="e_fr_energy">   -125.49926121 </i>
    <i name="e_wo_entrp">   -125.49769406 </i>
    <i name="e_0_energy">   -125.49847763 </i>
   </energy>
  </scstep>
  <scstep>
   <time name="dav">   10.58   10.61</time>
   <time name="total">   10.87   10.91</time>
   <energy>
    <i name="e_fr_energy">   -125.49926157 </i>
    <i name="e_wo_entrp">   -125.49769442 </i>
    <i name="e_0_energy">   -125.49847799 </i>
   </energy>
  </scstep>
  <scstep>
   <time name="dav">   10.38   10.41</time>
   <time name="total">   10.68   10.73</time>
   <energy>
    <i name="e_fr_energy">   -125.49926185 </i>
    <i name="e_wo_entrp">   -125.49769470 </i>
    <i name="e_0_energy">   -125.49847828 </i>
   </energy>
  </scstep>
  <scstep>
   <time name="dav">    9.62    9.64</time>
   <time name="total">    9.91    9.95</time>
   <energy>
    <i name="e_fr_energy">   -125.49926207 </i>
    <i name="e_wo_entrp">   -125.49769492 </i>
    <i name="e_0_energy">   -125.49847849 </i>
   </energy>
  </scstep>
  <scstep>
   <time name="dav">    8.32    8.35</time>
   <time name="total">    8.62    8.66</time>
   <energy>
    <i name="e_fr_energy">   -125.49926231 </i>
    <i name="e_wo_entrp">   -125.49769516 </i>
    <i name="e_0_energy">   -125.49847874 </i>
   </energy>
  </scstep>
  <scstep>
   <time name="dav">    9.32    9.34</time>
   <time name="total">    9.61    9.65</time>
   <energy>
    <i name="e_fr_energy">   -125.49926244 </i>
    <i name="e_wo_entrp">   -125.49769529 </i>
    <i name="e_0_energy">   -125.49847886 </i>
   </energy>
  </scstep>
  <scstep>
   <time name="dav">    8.61    8.64</time>
   <time name="total">    8.91    8.95</time>
   <energy>
    <i name="e_fr_energy">   -125.49926247 </i>
    <i name="e_wo_entrp">   -125.49769533 </i>
    <i name="e_0_energy">   -125.49847890 </i>
   </energy>
  </scstep>
  <scstep>
   <time name="dav">   11.02   11.06</time>
   <time name="total">   11.06   11.09</time>
   <energy>
    <i name="alphaZ">     57.78124218 </i>
    <i name="ewald">   4628.40867812 </i>
    <i name="hartreedc">  -6383.80120598 </i>
    <i name="XCdc">    180.04553593 </i>
    <i name="pawpsdc">   5650.04281532 </i>
    <i name="pawaedc">  -5654.41759808 </i>
    <i name="eentropy">     -0.00156715 </i>
    <i name="bandstr">   -506.82058340 </i>
    <i name="atom">   1903.26342058 </i>
    <i name="e_fr_energy">   -125.49926248 </i>
    <i name="e_wo_entrp">   -125.49769533 </i>
    <i name="e_0_energy">   -125.49847890 </i>
   </energy>
  </scstep>
  <structure>
   <crystal>
    <varray name="basis" >
     <v>       4.21581167       2.43400000       0.00000000 </v>
     <v>      -4.21581167       2.43400000       0.00000000 </v>
     <v>       0.00000000       0.00000000      15.00000000 </v>
    </varray>
    <i name="volume">    307.83856782 </i>
    <varray name="rec_basis" >
     <v>       0.11860112       0.20542317       0.00000000 </v>
     <v>      -0.11860112       0.20542317       0.00000000 </v>
     <v>       0.00000000       0.00000000       0.06666667 </v>
    </varray>
   </crystal>
   <varray name="positions" >
    <v>       0.00423181       0.00293960       0.11395847 </v>
    <v>       0.35853895       0.00265923       0.09925789 </v>
    <v>       0.00409085       0.35718042       0.09925779 </v>
    <v>       0.64983122       0.64834544       0.09928206 </v>
    <v>       0.32680738       0.32531383       0.10023007 </v>
    <v>       0.68162531       0.00281289       0.10025134 </v>
    <v>       0.00426319       0.68024759       0.10025671 </v>
    <v>       0.16696237       0.33300577       0.33747866 </v>
    <v>       0.33299911       0.16696099       0.33748272 </v>
    <v>       0.16603415       0.83304489       0.33748887 </v>
    <v>       0.33331230       0.66663369       0.33692899 </v>
    <v>       0.66663068       0.33332840       0.33692895 </v>
    <v>       0.83304833       0.16604781       0.33748809 </v>
    <v>       0.66697157       0.83393849       0.33747935 </v>
    <v>       0.83394677       0.66697496       0.33747604 </v>
   </varray>
  </structure>
  <varray name="forces" >
   <v>       0.00822885      -0.00878040      -0.23414954 </v>
   <v>      -0.05850801      -0.02515679      -0.05252925 </v>
   <v>       0.06007534      -0.02493668      -0.05213027 </v>
   <v>      -0.00265204       0.06605046      -0.05498489 </v>
   <v>      -0.00540758       0.05500216       0.11631235 </v>
   <v>      -0.04092327      -0.02988942       0.11470746 </v>
   <v>       0.03956638      -0.03118519       0.11388765 </v>
   <v>      -0.26466419      -0.00742674      -0.01726917 </v>
   <v>       0.26395078      -0.00590245      -0.01783919 </v>
   <v>       0.13531195       0.22623434      -0.01892127 </v>
   <v>      -0.00728608       0.00739712       0.07827621 </v>
   <v>       0.01158114       0.00437955       0.07829549 </v>
   <v>      -0.13440271       0.22205026      -0.01892563 </v>
   <v>       0.13510194      -0.22257407      -0.01765762 </v>
   <v>      -0.13997252      -0.22526214      -0.01707233 </v>
  </varray>
  <varray name="stress" >
   <v>     -25.96517790      -0.00610947       0.00202254 </v>
   <v>      -0.00610948     -25.95461498      -0.02965233 </v>
   <v>       0.00202256      -0.02965233      -1.46796669 </v>
  </varray>
  <energy>
   <i name="e_fr_energy">   -127.08133935 </i>
   <i name="e_wo_entrp">   -127.07977220 </i>
   <i name="e_0_energy">   -127.08055577 </i>
  </energy>
  <time name="totalsc">  171.44  172.18</time>
 </calculation>
 <calculation>
  <scstep>
   <time name="dav">    5.54    5.56</time>
   <time name="total">    5.84    5.87</time>
   <energy>
    <i name="alphaZ">     57.78124218 </i>
    <i name="ewald">   4628.03548116 </i>
    <i name="hartreedc">  -6383.32686503 </i>
    <i name="XCdc">    180.05256030 </i>
    <i name="pawpsdc">   5650.04288956 </i>
    <i name="pawaedc">  -5654.41767237 </i>
    <i name="eentropy">     -0.00156719 </i>
    <i name="bandstr">   -506.93364267 </i>
    <i name="atom">   1903.26342058 </i>
    <i name="e_fr_energy">   -125.50415349 </i>
    <i name="e_wo_entrp">   -125.50258630 </i>
    <i name="e_0_energy">   -125.50336989 </i>
   </energy>
  </scstep>
  <scstep>
   <time name="dav">   11.79   11.83</time>
   <time name="total">   12.08   12.14</time>
   <energy>
    <i name="e_fr_energy">   -125.50411569 </i>
    <i name="e_wo_entrp">   -125.50254850 </i>
    <i name="e_0_energy">   -125.50333209 </i>
   </energy>
  </scstep>
  <scstep>
   <time name="dav">    8.51    8.54</time>
   <time name="total">    8.81    8.85</time>
   <energy>
    <i name="e_fr_energy">   -125.50406338 </i>
    <i name="e_wo_entrp">   -125.50249618 </i>
    <i name="e_0_energy">   -125.50327978 </i>
   </energy>
  </scstep>
  <scstep>
   <time name="dav">   10.28   10.31</time>
   <time name="total">   10.58   10.62</time>
   <energy>
    <i name="e_fr_energy">   -125.50406549 </i>
    <i name="e_wo_entrp">   -125.50249830 </i>
    <i name="e_0_energy">   -125.50328190 </i>
   </energy>
  </scstep>
  <scstep>
   <time name="dav">    9.12    9.15</time>
   <time name="total">    9.41    9.46</time>
   <energy>
    <i name="e_fr_energy">   -125.50406594 </i>
    <i name="e_wo_entrp">   -125.50249875 </i>
    <i name="e_0_energy">   -125.50328234 </i>
   </energy>
  </scstep>
  <scstep>
   <time name="dav">    9.76    9.79</time>
   <time name="total">   10.05   10.10</time>
   <energy>
    <i name="e_fr_energy">   -125.50406581 </i>
    <i name="e_wo_entrp">   -125.50249862 </i>
    <i name="e_0_energy">   -125.50328221 </i>
   </energy>
  </scstep>
  <scstep>
   <time name="dav">   10.50   10.54</time>
   <time name="total">   10.80   10.85</time>
   <energy>
    <i name="e_fr_energy">   -125.50406577 </i>
    <i name="e_wo_entrp">   -125.50249858 </i>
    <i name="e_0_energy">   -125.50328218 </i>
   </energy>
  </scstep>
  <scstep>
   <time name="dav">    9.35    9.38</time>
   <time name="total">    9.65    9.69</time>
   <energy>
    <i name="e_fr_energy">   -125.50406573 </i>
    <i name="e_wo_entrp">   -125.50249854 </i>
    <i name="e_0_energy">   -125.50328214 </i>
   </energy>
  </scstep>
  <scstep>
   <time name="dav">    9.60    9.64</time>
   <time name="total">    9.64    9.68</time>
   <energy>
    <i name="alphaZ">     57.78124218 </i>
    <i name="ewald">   4628.03548116 </i>
    <i name="hartreedc">  -6383.38126059 </i>
    <i name="XCdc">    180.05177702 </i>
    <i name="pawpsdc">   5652.16836083 </i>
    <i name="pawaedc">  -5656.54390266 </i>
    <i name="eentropy">     -0.00156719 </i>
    <i name="bandstr">   -506.87761705 </i>
    <i name="atom">   1903.26342058 </i>
    <i name="e_fr_energy">   -125.50406574 </i>
    <i name="e_wo_entrp">   -125.50249854 </i>
    <i name="e_0_energy">   -125.50328214 </i>
   </energy>
  </scstep>
  <structure>
   <crystal>
    <varray name="basis" >
     <v>       4.21581167       2.43400000       0.00000000 </v>
     <v>      -4.21581167       2.43400000       0.00000000 </v>
     <v>       0.00000000       0.00000000      15.00000000 </v>
    </varray>
    <i name="volume">    307.83856782 </i>
    <varray name="rec_basis" >
     <v>       0.11860112       0.20542317       0.00000000 </v>
     <v>      -0.11860112       0.20542317       0.00000000 </v>
     <v>       0.00000000       0.00000000       0.06666667 </v>
    </varray>
   </crystal>
   <varray name="positions" >
    <v>       0.00423170       0.00294140       0.11316387 </v>
    <v>       0.35869243       0.00265526       0.09940900 </v>
    <v>       0.00409406       0.35734217       0.09940875 </v>
    <v>       0.64968909       0.64819576       0.09943546 </v>
    <v>       0.32699177       0.32549704       0.10028968 </v>
    <v>       0.68144470       0.00280383       0.10031525 </v>
    <v>       0.00425700       0.68007163       0.10032169 </v>
    <v>       0.16670663       0.33322981       0.33749702 </v>
    <v>       0.33322439       0.16670849       0.33750115 </v>
    <v>       0.16651114       0.83328008       0.33750727 </v>
    <v>       0.33331563       0.66665090       0.33694936 </v>
    <v>       0.66664660       0.33332370       0.33694933 </v>
    <v>       0.83327735       0.16651788       0.33750639 </v>
    <v>       0.66674661       0.83346549       0.33749754 </v>
    <v>       0.83346489       0.66675057       0.33749424 </v>
   </varray>
  </structure>
  <varray name="forces" >
   <v>       0.00797443      -0.00776416      -0.21671920 </v>
   <v>      -0.06387159      -0.02778554      -0.05364981 </v>
   <v>       0.06572578      -0.02836395      -0.05320012 </v>
   <v>      -0.00319271       0.07051245      -0.05640676 </v>
   <v>      -0.00541392       0.02799896       0.11290859 </v>
   <v>      -0.01893036      -0.01586602       0.11086587 </v>
   <v>       0.01807541      -0.01766694       0.10994171 </v>
   <v>      -0.07043322       0.00468121      -0.01766022 </v>
   <v>       0.06999965       0.00543949      -0.01824200 </v>
   <v>       0.04102960       0.05492548      -0.01928682 </v>
   <v>      -0.00139726       0.00261529       0.07806933 </v>
   <v>       0.00293383       0.00150403       0.07808662 </v>
   <v>      -0.04076440       0.05378878      -0.01927485 </v>
   <v>       0.02847108      -0.06162224      -0.01800686 </v>
   <v>      -0.03020633      -0.06239685      -0.01742549 </v>
  </varray>
  <varray name="stress" >
   <v>     -25.81893959      -0.00818619       0.00143616 </v>
   <v>      -0.00818617     -25.84352719      -0.02712210 </v>
   <v>       0.00143617      -0.02712214      -1.48405896 </v>
  </varray>
  <energy>
   <i name="e_fr_energy">   -127.08594069 </i>
   <i name="e_wo_entrp">   -127.08437350 </i>
   <i name="e_0_energy">   -127.08515710 </i>
  </energy>
  <time name="totalsc">   91.64   92.05</time>
 </calculation>
 <calculation>
  <scstep>
   <time name="dav">    5.61    5.64</time>
   <time name="total">    5.91    5.95</time>
   <energy>
    <i name="alphaZ">     57.78124218 </i>
    <i name="ewald">   4627.53862466 </i>
    <i name="hartreedc">  -6382.76451141 </i>
    <i name="XCdc">    180.05983683 </i>
    <i name="pawpsdc">   5652.16640739 </i>
    <i name="pawaedc">  -5656.54194928 </i>
    <i name="eentropy">     -0.00156714 </i>
    <i name="bandstr">   -507.00801735 </i>
    <i name="atom">   1903.26342058 </i>
    <i name="e_fr_energy">   -125.50651355 </i>
    <i name="e_wo_entrp">   -125.50494641 </i>
    <i name="e_0_energy">   -125.50572998 </i>
   </energy>
  </scstep>
  <scstep>
   <time name="dav">   12.11   12.14</time>
   <time name="total">   12.40   12.45</time>
   <energy>
    <i name="e_fr_energy">   -125.50646253 </i>
    <i name="e_wo_entrp">   -125.50489538 </i>
    <i name="e_0_energy">   -125.50567896 </i>
   </energy>
  </scstep>
  <scstep>
[...]
       <r>     2.6863     0.9369    30.9124 </r>
       <r>     2.7923     0.5448    30.9702 </r>
       <r>     2.8984     0.8449    31.0598 </r>
       <r>     3.0044     1.4506    31.2137 </r>
       <r>     3.1105     1.4441    31.3668 </r>
       <r>     3.2166     1.2584    31.5003 </r>
       <r>     3.3226     1.3256    31.6409 </r>
       <r>     3.4287     1.4090    31.7903 </r>
       <r>     3.5347     2.6289    32.0691 </r>
       <r>     3.6408     3.4834    32.4386 </r>
       <r>     3.7468     3.0753    32.7647 </r>
       <r>     3.8529     2.9223    33.0747 </r>
       <r>     3.9590     2.9777    33.3905 </r>
       <r>     4.0650     3.5715    33.7693 </r>
       <r>     4.1711     2.9337    34.0804 </r>
       <r>     4.2771     2.8014    34.3775 </r>
       <r>     4.3832     3.0019    34.6959 </r>
       <r>     4.4892     2.6611    34.9781 </r>
       <r>     4.5953     2.5251    35.2459 </r>
       <r>     4.7014     3.7191    35.6404 </r>
       <r>     4.8074     3.3783    35.9986 </r>
       <r>     4.9135     2.4742    36.2610 </r>
       <r>     5.0195     3.1058    36.5904 </r>
       <r>     5.1256     3.6518    36.9777 </r>
       <r>     5.2317     3.0244    37.2985 </r>
       <r>     5.3377     2.7155    37.5865 </r>
       <r>     5.4438     3.0609    37.9111 </r>
       <r>     5.5498     3.1505    38.2453 </r>
       <r>     5.6559     2.5306    38.5137 </r>
       <r>     5.7619     3.0281    38.8348 </r>
       <r>     5.8680     2.7923    39.1310 </r>
       <r>     5.9741     2.5626    39.4027 </r>
       <r>     6.0801     2.0550    39.6207 </r>
       <r>     6.1862     2.5469    39.8908 </r>
       <r>     6.2922     2.7750    40.1851 </r>
       <r>     6.3983     2.9294    40.4958 </r>
       <r>     6.5043     3.5521    40.8725 </r>
       <r>     6.6104     3.7945    41.2750 </r>
       <r>     6.7165     4.0423    41.7037 </r>
       <r>     6.8225     3.0823    42.0306 </r>
       <r>     6.9286     3.2695    42.3773 </r>
       <r>     7.0346     3.3004    42.7274 </r>
       <r>     7.1407     2.7395    43.0179 </r>
       <r>     7.2467     2.5574    43.2891 </r>
       <r>     7.3528     2.5587    43.5605 </r>
       <r>     7.4589     3.1774    43.8975 </r>
       <r>     7.5649     3.2434    44.2415 </r>
       <r>     7.6710     4.0818    44.6744 </r>
       <r>     7.7770     4.1271    45.1121 </r>
       <r>     7.8831     3.1128    45.4422 </r>
       <r>     7.9891     4.1974    45.8874 </r>
       <r>     8.0952     4.6854    46.3843 </r>
       <r>     8.2013     4.5239    46.8641 </r>
       <r>     8.3073     4.6281    47.3550 </r>
       <r>     8.4134     3.1197    47.6858 </r>
       <r>     8.5194     1.5202    47.8471 </r>
       <r>     8.6255     0.6948    47.9207 </r>
       <r>     8.7315     0.4020    47.9634 </r>
       <r>     8.8376     0.2760    47.9926 </r>
       <r>     8.9437     0.0665    47.9997 </r>
       <r>     9.0497     0.0028    48.0000 </r>
       <r>     9.1558     0.0000    48.0000 </r>
       <r>     9.2618     0.0000    48.0000 </r>
       <r>     9.3679     0.0000    48.0000 </r>
       <r>     9.4739     0.0000    48.0000 </r>
       <r>     9.5800     0.0000    48.0000 </r>
       <r>     9.6861     0.0000    48.0000 </r>
       <r>     9.7921     0.0000    48.0000 </r>
       <r>     9.8982     0.0000    48.0000 </r>
       <r>    10.0042     0.0000    48.0000 </r>
       <r>    10.1103     0.0000    48.0000 </r>
       <r>    10.2163     0.0000    48.0000 </r>
      </set>
      <set comment="spin 2">
       <r>   -21.6009     0.0000     0.0000 </r>
       <r>   -21.4948     0.0000     0.0000 </r>
       <r>   -21.3888     0.0000     0.0000 </r>
       <r>   -21.2827     0.0000     0.0000 </r>
       <r>   -21.1766     0.0000     0.0000 </r>
       <r>   -21.0706     0.0000     0.0000 </r>
       <r>   -20.9645     0.0000     0.0000 </r>
       <r>   -20.8585     0.0000     0.0000 </r>
       <r>   -20.7524     0.0000     0.0000 </r>
       <r>   -20.6464     0.0000     0.0000 </r>
       <r>   -20.5403     0.0000     0.0000 </r>
       <r>   -20.4342     0.0000     0.0000 </r>
       <r>   -20.3282     0.0009     0.0001 </r>
       <r>   -20.2221     0.0355     0.0039 </r>
       <r>   -20.1161     0.2546     0.0309 </r>
       <r>   -20.0100     0.5341     0.0875 </r>
       <r>   -19.9040     0.5832     0.1494 </r>
       <r>   -19.7979     0.6352     0.2167 </r>
       <r>   -19.6918     0.5374     0.2737 </r>
       <r>   -19.5858     0.6925     0.3472 </r>
       <r>   -19.4797     0.5431     0.4048 </r>
       <r>   -19.3737     0.5514     0.4632 </r>
       <r>   -19.2676     0.7719     0.5451 </r>
       <r>   -19.1615     0.4903     0.5971 </r>
       <r>   -19.0555     0.5046     0.6506 </r>
       <r>   -18.9494     0.7873     0.7341 </r>
       <r>   -18.8434     0.6680     0.8050 </r>
       <r>   -18.7373     0.3808     0.8453 </r>
       <r>   -18.6313     0.5721     0.9060 </r>
       <r>   -18.5252     0.8872     1.0001 </r>
       <r>   -18.4191     0.5857     1.0622 </r>
       <r>   -18.3131     0.4863     1.1138 </r>
       <r>   -18.2070     0.3903     1.1552 </r>
       <r>   -18.1010     0.8613     1.2465 </r>
       <r>   -17.9949     0.8429     1.3359 </r>
       <r>   -17.8889     0.4501     1.3837 </r>
       <r>   -17.7828     0.4288     1.4292 </r>
       <r>   -17.6767     0.5322     1.4856 </r>
       <r>   -17.5707     0.8107     1.5716 </r>
       <r>   -17.4646     0.8841     1.6653 </r>
       <r>   -17.3586     0.8665     1.7572 </r>
       <r>   -17.2525     1.0443     1.8680 </r>
       <r>   -17.1465     1.4071     2.0172 </r>
       <r>   -17.0404     1.9487     2.2239 </r>
       <r>   -16.9343     2.1277     2.4495 </r>
       <r>   -16.8283     2.4969     2.7144 </r>
       <r>   -16.7222     2.6860     2.9992 </r>
       <r>   -16.6162     1.4349     3.1514 </r>
       <r>   -16.5101     0.3935     3.1931 </r>
       <r>   -16.4041     0.9546     3.2944 </r>
       <r>   -16.2980     1.0206     3.4026 </r>
       <r>   -16.1919     0.5847     3.4646 </r>
       <r>   -16.0859     0.5309     3.5210 </r>
       <r>   -15.9798     0.5058     3.5746 </r>
       <r>   -15.8738     0.4776     3.6253 </r>
       <r>   -15.7677     0.5010     3.6784 </r>
       <r>   -15.6617     1.0769     3.7926 </r>
       <r>   -15.5556     0.9993     3.8986 </r>
       <r>   -15.4495     0.4982     3.9514 </r>
       <r>   -15.3435     0.4984     4.0043 </r>
       <r>   -15.2374     0.4491     4.0519 </r>
       <r>   -15.1314     0.6118     4.1168 </r>
       <r>   -15.0253     0.8911     4.2113 </r>
       <r>   -14.9193     1.7511     4.3970 </r>
       <r>   -14.8132     2.4260     4.6543 </r>
       <r>   -14.7071     2.4260     4.9116 </r>
       <r>   -14.6011     2.0147     5.1253 </r>
       <r>   -14.4950     1.1665     5.2490 </r>
       <r>   -14.3890     1.1615     5.3722 </r>
       <r>   -14.2829     1.9870     5.5829 </r>
       <r>   -14.1769     1.9231     5.7869 </r>
       <r>   -14.0708     1.5239     5.9485 </r>
       <r>   -13.9647     1.3632     6.0931 </r>
       <r>   -13.8587     1.9448     6.2993 </r>
       <r>   -13.7526     2.4964     6.5641 </r>
       <r>   -13.6466     2.3097     6.8091 </r>
       <r>   -13.5405     2.1206     7.0340 </r>
       <r>   -13.4344     1.0426     7.1445 </r>
       <r>   -13.3284     0.7269     7.2216 </r>
       <r>   -13.2223     0.4553     7.2699 </r>
       <r>   -13.1163     0.5233     7.3254 </r>
       <r>   -13.0102     0.8968     7.4205 </r>
       <r>   -12.9042     0.8806     7.5139 </r>
       <r>   -12.7981     0.6244     7.5802 </r>
       <r>   -12.6920     0.9151     7.6772 </r>
       <r>   -12.5860     0.9142     7.7742 </r>
       <r>   -12.4799     0.6962     7.8480 </r>
       <r>   -12.3739     0.7052     7.9228 </r>
       <r>   -12.2678     0.4123     7.9665 </r>
       <r>   -12.1618     0.8390     8.0555 </r>
       <r>   -12.0557     1.0449     8.1663 </r>
       <r>   -11.9496     0.4079     8.2096 </r>
       <r>   -11.8436     0.4273     8.2549 </r>
       <r>   -11.7375     0.4462     8.3022 </r>
       <r>   -11.6315     0.8133     8.3885 </r>
       <r>   -11.5254     0.8364     8.4772 </r>
       <r>   -11.4194     0.4670     8.5267 </r>
       <r>   -11.3133     0.2570     8.5540 </r>
       <r>   -11.2072     0.5849     8.6160 </r>
       <r>   -11.1012     0.7410     8.6946 </r>
       <r>   -10.9951     0.6476     8.7633 </r>
       <r>   -10.8891     0.8980     8.8585 </r>
       <r>   -10.7830     0.8605     8.9498 </r>
       <r>   -10.6770     0.4031     8.9925 </r>
       <r>   -10.5709     1.1084     9.1101 </r>
       <r>   -10.4648     1.8720     9.3086 </r>
       <r>   -10.3588     1.9684     9.5174 </r>
       <r>   -10.2527     1.7784     9.7060 </r>
       <r>   -10.1467     2.0224     9.9205 </r>
       <r>   -10.0406     2.3634    10.1712 </r>
       <r>    -9.9346     2.0955    10.3934 </r>
       <r>    -9.8285     1.2800    10.5292 </r>
       <r>    -9.7224     1.2439    10.6611 </r>
       <r>    -9.6164     1.7919    10.8511 </r>
       <r>    -9.5103     1.5901    11.0198 </r>
       <r>    -9.4043     2.1793    11.2509 </r>
       <r>    -9.2982     2.3216    11.4971 </r>
       <r>    -9.1922     1.6919    11.6766 </r>
       <r>    -9.0861     1.1510    11.7986 </r>
       <r>    -8.9800     1.0842    11.9136 </r>
       <r>    -8.8740     2.2952    12.1570 </r>
       <r>    -8.7679     2.4639    12.4184 </r>
       <r>    -8.6619     1.5866    12.5866 </r>
       <r>    -8.5558     1.0622    12.6993 </r>
       <r>    -8.4498     1.7336    12.8832 </r>
       <r>    -8.3437     2.4956    13.1478 </r>
       <r>    -8.2376     1.9338    13.3529 </r>
       <r>    -8.1316     1.7361    13.5371 </r>
       <r>    -8.0255     2.3671    13.7881 </r>
       <r>    -7.9195     3.0213    14.1085 </r>
       <r>    -7.8134     3.2971    14.4582 </r>
       <r>    -7.7074     2.1284    14.6840 </r>
       <r>    -7.6013     1.3156    14.8235 </r>
       <r>    -7.4952     1.0337    14.9331 </r>
       <r>    -7.3892     2.2013    15.1666 </r>
       <r>    -7.2831     2.3715    15.4181 </r>
       <r>    -7.1771     1.7362    15.6022 </r>
       <r>    -7.0710     1.3124    15.7414 </r>
       <r>    -6.9649     1.9585    15.9491 </r>
       <r>    -6.8589     2.4270    16.2065 </r>
       <r>    -6.7528     2.6620    16.4889 </r>
       <r>    -6.6468     2.8037    16.7862 </r>
       <r>    -6.5407     2.2337    17.0231 </r>
       <r>    -6.4347     2.6652    17.3058 </r>
       <r>    -6.3286     2.4175    17.5622 </r>
       <r>    -6.2225     2.5174    17.8292 </r>
       <r>    -6.1165     3.4720    18.1974 </r>
       <r>    -6.0104     3.0053    18.5161 </r>
       <r>    -5.9044     3.8320    18.9225 </r>
       <r>    -5.7983     3.6985    19.3148 </r>
       <r>    -5.6923     2.4007    19.5694 </r>
       <r>    -5.5862     2.5110    19.8357 </r>
       <r>    -5.4801     4.2963    20.2914 </r>
       <r>    -5.3741     4.6549    20.7851 </r>
       <r>    -5.2680     2.5338    21.0538 </r>
       <r>    -5.1620     1.8927    21.2545 </r>
       <r>    -5.0559     1.4210    21.4052 </r>
       <r>    -4.9499     1.6238    21.5774 </r>
       <r>    -4.8438     1.7464    21.7627 </r>
       <r>    -4.7377     1.2198    21.8920 </r>
       <r>    -4.6317     0.9053    21.9880 </r>
       <r>    -4.5256     1.2459    22.1202 </r>
       <r>    -4.4196     2.4621    22.3813 </r>
       <r>    -4.3135     3.0567    22.7055 </r>
       <r>    -4.2075     2.7295    22.9950 </r>
       <r>    -4.1014     2.1262    23.2205 </r>
       <r>    -3.9953     2.5002    23.4856 </r>
       <r>    -3.8893     2.9777    23.8014 </r>
       <r>    -3.7832     2.4151    24.0576 </r>
       <r>    -3.6772     2.5102    24.3238 </r>
       <r>    -3.5711     2.6180    24.6015 </r>
       <r>    -3.4651     2.0556    24.8195 </r>
       <r>    -3.3590     1.6481    24.9943 </r>
       <r>    -3.2529     1.5241    25.1559 </r>
       <r>    -3.1469     2.2293    25.3923 </r>
       <r>    -3.0408     2.3174    25.6381 </r>
       <r>    -2.9348     1.5512    25.8026 </r>
       <r>    -2.8287     1.5612    25.9682 </r>
       <r>    -2.7227     1.0828    26.0831 </r>
       <r>    -2.6166     1.2122    26.2116 </r>
       <r>    -2.5105     2.2294    26.4481 </r>
       <r>    -2.4045     2.2068    26.6821 </r>
       <r>    -2.2984     0.6755    26.7538 </r>
       <r>    -2.1924     0.6605    26.8238 </r>
       <r>    -2.0863     1.2128    26.9524 </r>
       <r>    -1.9803     1.2242    27.0823 </r>
       <r>    -1.8742     1.4031    27.2311 </r>
       <r>    -1.7681     1.4371    27.3835 </r>
       <r>    -1.6621     1.3224    27.5238 </r>
       <r>    -1.5560     1.0509    27.6352 </r>
       <r>    -1.4500     0.4979    27.6880 </r>
       <r>    -1.3439     0.5322    27.7445 </r>
       <r>    -1.2378     0.5557    27.8034 </r>
       <r>    -1.1318     0.4269    27.8487 </r>
       <r>    -1.0257     0.6925    27.9221 </r>
       <r>    -0.9197     0.4880    27.9739 </r>
       <r>    -0.8136     0.1054    27.9851 </r>
       <r>    -0.7076     0.0098    27.9861 </r>
       <r>    -0.6015     0.0002    27.9861 </r>
       <r>    -0.4954     0.0035    27.9865 </r>
       <r>    -0.3894     0.0587    27.9927 </r>
       <r>    -0.2833     0.1431    28.0079 </r>
       <r>    -0.1773     0.0537    28.0136 </r>
       <r>    -0.0712     0.0029    28.0139 </r>
       <r>     0.0348     0.0000    28.0139 </r>
       <r>     0.1409     0.0019    28.0141 </r>
       <r>     0.2470     0.0729    28.0218 </r>
       <r>     0.3530     0.3775    28.0619 </r>
       <r>     0.4591     0.3033    28.0940 </r>
       <r>     0.5651     0.1581    28.1108 </r>
       <r>     0.6712     0.5602    28.1702 </r>
       <r>     0.7772     0.9376    28.2697 </r>
       <r>     0.8833     1.8333    28.4641 </r>
       <r>     0.9894     3.3114    28.8153 </r>
       <r>     1.0954     1.8832    29.0150 </r>
       <r>     1.2015     0.3315    29.0502 </r>
       <r>     1.3075     0.1498    29.0661 </r>
       <r>     1.4136     0.7841    29.1492 </r>
       <r>     1.5196     2.1022    29.3722 </r>
       <r>     1.6257     2.6281    29.6509 </r>
       <r>     1.7318     1.7889    29.8406 </r>
       <r>     1.8378     1.1145    29.9588 </r>
       <r>     1.9439     1.1549    30.0813 </r>
       <r>     2.0499     1.1773    30.2062 </r>
       <r>     2.1560     0.9256    30.3044 </r>
       <r>     2.2620     1.2035    30.4320 </r>
       <r>     2.3681     0.6624    30.5022 </r>
       <r>     2.4742     1.1572    30.6250 </r>
       <r>     2.5802     1.7736    30.8131 </r>
       <r>     2.6863     0.9369    30.9124 </r>
       <r>     2.7923     0.5448    30.9702 </r>
       <r>     2.8984     0.8449    31.0598 </r>
       <r>     3.0044     1.4506    31.2137 </r>
       <r>     3.1105     1.4441    31.3668 </r>
       <r>     3.2166     1.2584    31.5003 </r>
       <r>     3.3226     1.3256    31.6409 </r>
       <r>     3.4287     1.4090    31.7903 </r>
       <r>     3.5347     2.6289    32.0691 </r>
       <r>     3.6408     3.4834    32.4386 </r>
       <r>     3.7468     3.0753    32.7647 </r>
       <r>     3.8529     2.9223    33.0747 </r>
       <r>     3.9590     2.9777    33.3905 </r>
       <r>     4.0650     3.5715    33.7693 </r>
       <r>     4.1711     2.9337    34.0804 </r>
       <r>     4.2771     2.8014    34.3775 </r>
       <r>     4.3832     3.0019    34.6959 </r>
       <r>     4.4892     2.6611    34.9781 </r>
       <r>     4.5953     2.5251    35.2459 </r>
       <r>     4.7014     3.7191    35.6403 </r>
       <r>     4.8074     3.3783    35.9986 </r>
       <r>     4.9135     2.4742    36.2610 </r>
       <r>     5.0195     3.1058    36.5904 </r>
       <r>     5.1256     3.6518    36.9777 </r>
       <r>     5.2317     3.0244    37.2985 </r>
       <r>     5.3377     2.7155    37.5865 </r>
       <r>     5.4438     3.0609    37.9111 </r>
       <r>     5.5498     3.1505    38.2453 </r>
       <r>     5.6559     2.5306    38.5136 </r>
       <r>     5.7619     3.0281    38.8348 </r>
       <r>     5.8680     2.7923    39.1310 </r>
       <r>     5.9741     2.5626    39.4027 </r>
       <r>     6.0801     2.0550    39.6207 </r>
       <r>     6.1862     2.5469    39.8908 </r>
       <r>     6.2922     2.7750    40.1851 </r>
       <r>     6.3983     2.9294    40.4958 </r>
       <r>     6.5043     3.5521    40.8725 </r>
       <r>     6.6104     3.7945    41.2750 </r>
       <r>     6.7165     4.0423    41.7037 </r>
       <r>     6.8225     3.0823    42.0306 </r>
       <r>     6.9286     3.2695    42.3773 </r>
       <r>     7.0346     3.3004    42.7274 </r>
       <r>     7.1407     2.7395    43.0179 </r>
       <r>     7.2467     2.5574    43.2891 </r>
       <r>     7.3528     2.5587    43.5605 </r>
       <r>     7.4589     3.1774    43.8975 </r>
       <r>     7.5649     3.2434    44.2415 </r>
       <r>     7.6710     4.0818    44.6744 </r>
       <r>     7.7770     4.1271    45.1121 </r>
       <r>     7.8831     3.1128    45.4422 </r>
       <r>     7.9891     4.1974    45.8874 </r>
       <r>     8.0952     4.6855    46.3843 </r>
       <r>     8.2013     4.5239    46.8641 </r>
       <r>     8.3073     4.6281    47.3550 </r>
       <r>     8.4134     3.1197    47.6858 </r>
       <r>     8.5194     1.5202    47.8471 </r>
       <r>     8.6255     0.6948    47.9207 </r>
       <r>     8.7315     0.4020    47.9634 </r>
       <r>     8.8376     0.2760    47.9926 </r>
       <r>     8.9437     0.0665    47.9997 </r>
       <r>     9.0497     0.0028    48.0000 </r>
       <r>     9.1558     0.0000    48.0000 </r>
       <r>     9.2618     0.0000    48.0000 </r>
       <r>     9.3679     0.0000    48.0000 </r>
       <r>     9.4739     0.0000    48.0000 </r>
       <r>     9.5800     0.0000    48.0000 </r>
       <r>     9.6861     0.0000    48.0000 </r>
       <r>     9.7921     0.0000    48.0000 </r>
       <r>     9.8982     0.0000    48.0000 </r>
       <r>    10.0042     0.0000    48.0000 </r>
       <r>    10.1103     0.0000    48.0000 </r>
       <r>    10.2163     0.0000    48.0000 </r>
      </set>
     </set>
    </array>
   </total>
  </dos>
 </calculation>
 <structure name="finalpos" >
  <crystal>
   <varray name="basis" >
    <v>       4.21581167       2.43400000       0.00000000 </v>
    <v>      -4.21581167       2.43400000       0.00000000 </v>
    <v>       0.00000000       0.00000000      15.00000000 </v>
   </varray>
   <i name="volume">    307.83856782 </i>
   <varray name="rec_basis" >
    <v>       0.11860112       0.20542317       0.00000000 </v>
    <v>      -0.11860112       0.20542317       0.00000000 </v>
    <v>       0.00000000       0.00000000       0.06666667 </v>
   </varray>
  </crystal>
  <varray name="positions" >
   <v>       0.00440576       0.00292764       0.09964036 </v>
   <v>       0.35954386       0.00293312       0.10073872 </v>
   <v>       0.00441437       0.35806542       0.10074119 </v>
   <v>       0.64927767       0.64779621       0.10074894 </v>
   <v>       0.32788382       0.32640096       0.10055288 </v>
   <v>       0.68094713       0.00293688       0.10055159 </v>
   <v>       0.00441864       0.67946660       0.10055173 </v>
   <v>       0.16644358       0.33319557       0.33849066 </v>
   <v>       0.33313293       0.16650684       0.33849232 </v>
   <v>       0.16648763       0.83321893       0.33849449 </v>
   <v>       0.33313428       0.66653096       0.33838506 </v>
   <v>       0.66646716       0.33319628       0.33838514 </v>
   <v>       0.83315552       0.16655028       0.33849375 </v>
   <v>       0.66646796       0.83317694       0.33849016 </v>
   <v>       0.83311367       0.66653136       0.33848900 </v>
  </varray>
 </structure>
</modeling>
