  16  16   0  16
  0.2060716E+02  0.5038000E-09  0.5038000E-09  0.1500000E-08  0.5000000E-15
  1.000000000000000E-004
  CAR 
 Lattice                                 
      9.78367000    -21.32587861  301     -0.96436701      1.00000000
    -21.326  0.0000E+00  0.0000E+00  0.0000E+00  0.0000E+00
    -21.222  0.0000E+00  0.0000E+00  0.0000E+00  0.0000E+00
    -21.118  0.0000E+00  0.0000E+00  0.0000E+00  0.0000E+00
    -21.015  0.0000E+00  0.0000E+00  0.0000E+00  0.0000E+00
    -20.911  0.0000E+00  0.0000E+00  0.0000E+00  0.0000E+00
    -20.807  0.0000E+00  0.0000E+00  0.0000E+00  0.0000E+00
    -20.704  0.0000E+00  0.0000E+00  0.0000E+00  0.0000E+00
    -20.600  0.0000E+00  0.0000E+00  0.0000E+00  0.0000E+00
    -20.496  0.2904E-19  0.2904E-19  0.3012E-20  0.3012E-20
    -20.393  0.3042E-14  0.3042E-14  0.3154E-15  0.3154E-15
    -20.289  0.3129E-10  0.3129E-10  0.3245E-11  0.3245E-11
    -20.185  0.4403E-07  0.4403E-07  0.4569E-08  0.4569E-08
    -20.081  0.9170E-05  0.9170E-05  0.9555E-06  0.9555E-06
    -19.978  0.3120E-03  0.3120E-03  0.3331E-04  0.3331E-04
    -19.874  0.2123E-02  0.2123E-02  0.2534E-03  0.2534E-03
    -19.770  0.4398E-02  0.4398E-02  0.7095E-03  0.7095E-03
    -19.667  0.4894E-02  0.4894E-02  0.1217E-02  0.1217E-02
    -19.563  0.5159E-02  0.5159E-02  0.1752E-02  0.1752E-02
    -19.459  0.4634E-02  0.4634E-02  0.2233E-02  0.2233E-02
    -19.356  0.5667E-02  0.5667E-02  0.2820E-02  0.2820E-02
    -19.252  0.4263E-02  0.4263E-02  0.3262E-02  0.3262E-02
    -19.148  0.5247E-02  0.5247E-02  0.3806E-02  0.3806E-02
    -19.045  0.5899E-02  0.5899E-02  0.4418E-02  0.4418E-02
    -18.941  0.3649E-02  0.3649E-02  0.4797E-02  0.4797E-02
    -18.837  0.5308E-02  0.5308E-02  0.5347E-02  0.5347E-02
    -18.733  0.6350E-02  0.6350E-02  0.6006E-02  0.6006E-02
    -18.630  0.4429E-02  0.4429E-02  0.6465E-02  0.6465E-02
    -18.526  0.3377E-02  0.3377E-02  0.6815E-02  0.6815E-02
    -18.422  0.6735E-02  0.6735E-02  0.7513E-02  0.7513E-02
    -18.319  0.5999E-02  0.5999E-02  0.8136E-02  0.8136E-02
    -18.215  0.4232E-02  0.4232E-02  0.8574E-02  0.8574E-02
    -18.111  0.3424E-02  0.3424E-02  0.8929E-02  0.8929E-02
    -18.008  0.7181E-02  0.7181E-02  0.9674E-02  0.9674E-02
    -17.904  0.1209E-01  0.1209E-01  0.1093E-01  0.1093E-01
    -17.800  0.1128E-01  0.1128E-01  0.1210E-01  0.1210E-01
    -17.696  0.1114E-01  0.1114E-01  0.1325E-01  0.1325E-01
    -17.593  0.1307E-01  0.1307E-01  0.1461E-01  0.1461E-01
    -17.489  0.1675E-01  0.1675E-01  0.1634E-01  0.1634E-01
    -17.385  0.2079E-01  0.2079E-01  0.1850E-01  0.1850E-01
    -17.282  0.1972E-01  0.1972E-01  0.2055E-01  0.2055E-01
    -17.178  0.9174E-02  0.9174E-02  0.2150E-01  0.2150E-01
    -17.074  0.4964E-02  0.4964E-02  0.2201E-01  0.2201E-01
    -16.971  0.7231E-02  0.7231E-02  0.2276E-01  0.2276E-01
    -16.867  0.6767E-02  0.6767E-02  0.2346E-01  0.2346E-01
    -16.763  0.5540E-02  0.5540E-02  0.2404E-01  0.2404E-01
    -16.659  0.4594E-02  0.4594E-02  0.2451E-01  0.2451E-01
    -16.556  0.2736E-02  0.2736E-02  0.2480E-01  0.2480E-01
    -16.452  0.4254E-02  0.4254E-02  0.2524E-01  0.2524E-01
    -16.348  0.9254E-02  0.9254E-02  0.2620E-01  0.2620E-01
    -16.245  0.6349E-02  0.6349E-02  0.2686E-01  0.2686E-01
    -16.141  0.4782E-02  0.4782E-02  0.2735E-01  0.2735E-01
    -16.037  0.4294E-02  0.4294E-02  0.2780E-01  0.2780E-01
    -15.934  0.4207E-02  0.4207E-02  0.2823E-01  0.2823E-01
    -15.830  0.3735E-02  0.3735E-02  0.2862E-01  0.2862E-01
    -15.726  0.8891E-02  0.8891E-02  0.2954E-01  0.2954E-01
    -15.622  0.1270E-01  0.1270E-01  0.3086E-01  0.3086E-01
    -15.519  0.1361E-01  0.1361E-01  0.3227E-01  0.3227E-01
    -15.415  0.1610E-01  0.1610E-01  0.3394E-01  0.3394E-01
    -15.311  0.1465E-01  0.1465E-01  0.3546E-01  0.3546E-01
    -15.208  0.1218E-01  0.1218E-01  0.3672E-01  0.3672E-01
    -15.104  0.1408E-01  0.1408E-01  0.3818E-01  0.3818E-01
    -15.000  0.1831E-01  0.1831E-01  0.4008E-01  0.4008E-01
    -14.897  0.1544E-01  0.1544E-01  0.4168E-01  0.4168E-01
    -14.793  0.1320E-01  0.1320E-01  0.4305E-01  0.4305E-01
    -14.689  0.9983E-02  0.9983E-02  0.4409E-01  0.4409E-01
    -14.585  0.1005E-01  0.1005E-01  0.4513E-01  0.4513E-01
    -14.482  0.1557E-01  0.1557E-01  0.4675E-01  0.4675E-01
    -14.378  0.2013E-01  0.2013E-01  0.4883E-01  0.4883E-01
    -14.274  0.1489E-01  0.1489E-01  0.5038E-01  0.5038E-01
    -14.171  0.9704E-02  0.9704E-02  0.5138E-01  0.5138E-01
    -14.067  0.7933E-02  0.7933E-02  0.5221E-01  0.5221E-01
    -13.963  0.7951E-02  0.7951E-02  0.5303E-01  0.5303E-01
    -13.860  0.8252E-02  0.8252E-02  0.5389E-01  0.5389E-01
    -13.756  0.6145E-02  0.6145E-02  0.5452E-01  0.5452E-01
    -13.652  0.3578E-02  0.3578E-02  0.5489E-01  0.5489E-01
    -13.548  0.4705E-02  0.4705E-02  0.5538E-01  0.5538E-01
    -13.445  0.4411E-02  0.4411E-02  0.5584E-01  0.5584E-01
    -13.341  0.6102E-02  0.6102E-02  0.5647E-01  0.5647E-01
    -13.237  0.5842E-02  0.5842E-02  0.5708E-01  0.5708E-01
    -13.134  0.6411E-02  0.6411E-02  0.5774E-01  0.5774E-01
    -13.030  0.8022E-02  0.8022E-02  0.5858E-01  0.5858E-01
    -12.926  0.7365E-02  0.7365E-02  0.5934E-01  0.5934E-01
    -12.823  0.8492E-02  0.8492E-02  0.6022E-01  0.6022E-01
    -12.719  0.5925E-02  0.5925E-02  0.6083E-01  0.6083E-01
    -12.615  0.6756E-02  0.6756E-02  0.6153E-01  0.6153E-01
    -12.512  0.5221E-02  0.5221E-02  0.6208E-01  0.6208E-01
    -12.408  0.4055E-02  0.4055E-02  0.6250E-01  0.6250E-01
    -12.304  0.8620E-02  0.8620E-02  0.6339E-01  0.6339E-01
    -12.200  0.6679E-02  0.6679E-02  0.6408E-01  0.6408E-01
    -12.097  0.6428E-02  0.6428E-02  0.6475E-01  0.6475E-01
    -11.993  0.1141E-01  0.1141E-01  0.6593E-01  0.6593E-01
    -11.889  0.1626E-01  0.1626E-01  0.6762E-01  0.6762E-01
    -11.786  0.1528E-01  0.1528E-01  0.6920E-01  0.6920E-01
    -11.682  0.1438E-01  0.1438E-01  0.7069E-01  0.7069E-01
    -11.578  0.1559E-01  0.1559E-01  0.7231E-01  0.7231E-01
    -11.475  0.1627E-01  0.1627E-01  0.7400E-01  0.7400E-01
    -11.371  0.9133E-02  0.9133E-02  0.7495E-01  0.7495E-01
    -11.267  0.9101E-02  0.9101E-02  0.7589E-01  0.7589E-01
    -11.163  0.1100E-01  0.1100E-01  0.7703E-01  0.7703E-01
    -11.060  0.1198E-01  0.1198E-01  0.7827E-01  0.7827E-01
    -10.956  0.7041E-02  0.7041E-02  0.7900E-01  0.7900E-01
    -10.852  0.5881E-02  0.5881E-02  0.7961E-01  0.7961E-01
    -10.749  0.1423E-01  0.1423E-01  0.8109E-01  0.8109E-01
    -10.645  0.1753E-01  0.1753E-01  0.8291E-01  0.8291E-01
    -10.541  0.9748E-02  0.9748E-02  0.8392E-01  0.8392E-01
    -10.438  0.5993E-02  0.5993E-02  0.8454E-01  0.8454E-01
    -10.334  0.1095E-01  0.1095E-01  0.8567E-01  0.8567E-01
    -10.230  0.1913E-01  0.1913E-01  0.8766E-01  0.8766E-01
    -10.126  0.1631E-01  0.1631E-01  0.8935E-01  0.8935E-01
    -10.023  0.8965E-02  0.8965E-02  0.9028E-01  0.9028E-01
     -9.919  0.8939E-02  0.8939E-02  0.9120E-01  0.9120E-01
     -9.815  0.9322E-02  0.9322E-02  0.9217E-01  0.9217E-01
     -9.712  0.1181E-01  0.1181E-01  0.9340E-01  0.9340E-01
     -9.608  0.9208E-02  0.9208E-02  0.9435E-01  0.9435E-01
     -9.504  0.1101E-01  0.1101E-01  0.9549E-01  0.9549E-01
     -9.401  0.9647E-02  0.9647E-02  0.9649E-01  0.9649E-01
     -9.297  0.9961E-02  0.9961E-02  0.9753E-01  0.9753E-01
     -9.193  0.9186E-02  0.9186E-02  0.9848E-01  0.9848E-01
     -9.089  0.2811E-02  0.2811E-02  0.9877E-01  0.9877E-01
     -8.986  0.4393E-02  0.4393E-02  0.9923E-01  0.9923E-01
     -8.882  0.1348E-01  0.1348E-01  0.1006E+00  0.1006E+00
     -8.778  0.1899E-01  0.1899E-01  0.1026E+00  0.1026E+00
     -8.675  0.1631E-01  0.1631E-01  0.1043E+00  0.1043E+00
     -8.571  0.8525E-02  0.8525E-02  0.1052E+00  0.1052E+00
     -8.467  0.8525E-02  0.8525E-02  0.1061E+00  0.1061E+00
     -8.364  0.9678E-02  0.9678E-02  0.1071E+00  0.1071E+00
     -8.260  0.1781E-01  0.1781E-01  0.1089E+00  0.1089E+00
     -8.156  0.2458E-01  0.2458E-01  0.1115E+00  0.1115E+00
     -8.052  0.2247E-01  0.2247E-01  0.1138E+00  0.1138E+00
     -7.949  0.1650E-01  0.1650E-01  0.1155E+00  0.1155E+00
     -7.845  0.1354E-01  0.1354E-01  0.1169E+00  0.1169E+00
     -7.741  0.1424E-01  0.1424E-01  0.1184E+00  0.1184E+00
     -7.638  0.2489E-01  0.2489E-01  0.1210E+00  0.1210E+00
     -7.534  0.2682E-01  0.2682E-01  0.1237E+00  0.1237E+00
     -7.430  0.2145E-01  0.2145E-01  0.1260E+00  0.1260E+00
     -7.327  0.2195E-01  0.2195E-01  0.1282E+00  0.1282E+00
     -7.223  0.2424E-01  0.2424E-01  0.1307E+00  0.1307E+00
     -7.119  0.2336E-01  0.2336E-01  0.1332E+00  0.1332E+00
     -7.015  0.2710E-01  0.2710E-01  0.1360E+00  0.1360E+00
     -6.912  0.2241E-01  0.2241E-01  0.1383E+00  0.1383E+00
     -6.808  0.1899E-01  0.1899E-01  0.1403E+00  0.1403E+00
     -6.704  0.2641E-01  0.2641E-01  0.1430E+00  0.1430E+00
     -6.601  0.2471E-01  0.2471E-01  0.1456E+00  0.1456E+00
     -6.497  0.2250E-01  0.2250E-01  0.1479E+00  0.1479E+00
     -6.393  0.2436E-01  0.2436E-01  0.1504E+00  0.1504E+00
     -6.290  0.2389E-01  0.2389E-01  0.1529E+00  0.1529E+00
     -6.186  0.2350E-01  0.2350E-01  0.1553E+00  0.1553E+00
     -6.082  0.1794E-01  0.1794E-01  0.1572E+00  0.1572E+00
     -5.979  0.1721E-01  0.1721E-01  0.1590E+00  0.1590E+00
     -5.875  0.2136E-01  0.2136E-01  0.1612E+00  0.1612E+00
     -5.771  0.2586E-01  0.2586E-01  0.1639E+00  0.1639E+00
     -5.667  0.1999E-01  0.1999E-01  0.1660E+00  0.1660E+00
     -5.564  0.1992E-01  0.1992E-01  0.1680E+00  0.1680E+00
     -5.460  0.2234E-01  0.2234E-01  0.1703E+00  0.1703E+00
     -5.356  0.2785E-01  0.2785E-01  0.1732E+00  0.1732E+00
     -5.253  0.2694E-01  0.2694E-01  0.1760E+00  0.1760E+00
     -5.149  0.1594E-01  0.1594E-01  0.1777E+00  0.1777E+00
     -5.045  0.1147E-01  0.1147E-01  0.1789E+00  0.1789E+00
     -4.942  0.1764E-01  0.1764E-01  0.1807E+00  0.1807E+00
     -4.838  0.1904E-01  0.1904E-01  0.1827E+00  0.1827E+00
     -4.734  0.1734E-01  0.1734E-01  0.1845E+00  0.1845E+00
     -4.630  0.1587E-01  0.1587E-01  0.1861E+00  0.1861E+00
     -4.527  0.1662E-01  0.1662E-01  0.1878E+00  0.1878E+00
     -4.423  0.1814E-01  0.1814E-01  0.1897E+00  0.1897E+00
     -4.319  0.2095E-01  0.2095E-01  0.1919E+00  0.1919E+00
     -4.216  0.2561E-01  0.2561E-01  0.1946E+00  0.1946E+00
     -4.112  0.3900E-01  0.3900E-01  0.1986E+00  0.1986E+00
     -4.008  0.3760E-01  0.3760E-01  0.2025E+00  0.2025E+00
     -3.905  0.2719E-01  0.2719E-01  0.2053E+00  0.2053E+00
     -3.801  0.1809E-01  0.1809E-01  0.2072E+00  0.2072E+00
     -3.697  0.1396E-01  0.1396E-01  0.2086E+00  0.2086E+00
     -3.593  0.1542E-01  0.1542E-01  0.2102E+00  0.2102E+00
     -3.490  0.1747E-01  0.1747E-01  0.2120E+00  0.2120E+00
     -3.386  0.2201E-01  0.2201E-01  0.2143E+00  0.2143E+00
     -3.282  0.1662E-01  0.1662E-01  0.2161E+00  0.2161E+00
     -3.179  0.1380E-01  0.1380E-01  0.2175E+00  0.2175E+00
     -3.075  0.1571E-01  0.1571E-01  0.2191E+00  0.2191E+00
     -2.971  0.2031E-01  0.2031E-01  0.2212E+00  0.2212E+00
     -2.868  0.2618E-01  0.2618E-01  0.2239E+00  0.2239E+00
     -2.764  0.1497E-01  0.1497E-01  0.2255E+00  0.2255E+00
     -2.660  0.1234E-01  0.1234E-01  0.2268E+00  0.2268E+00
     -2.556  0.1986E-01  0.1986E-01  0.2288E+00  0.2288E+00
     -2.453  0.2184E-01  0.2184E-01  0.2311E+00  0.2311E+00
     -2.349  0.1874E-01  0.1874E-01  0.2330E+00  0.2330E+00
     -2.245  0.2153E-01  0.2153E-01  0.2353E+00  0.2353E+00
     -2.142  0.1982E-01  0.1982E-01  0.2373E+00  0.2373E+00
     -2.038  0.6878E-02  0.6878E-02  0.2380E+00  0.2380E+00
     -1.934  0.3327E-02  0.3327E-02  0.2384E+00  0.2384E+00
     -1.831  0.7686E-02  0.7686E-02  0.2392E+00  0.2392E+00
     -1.727  0.6213E-02  0.6213E-02  0.2398E+00  0.2398E+00
     -1.623  0.4760E-02  0.4760E-02  0.2403E+00  0.2403E+00
     -1.519  0.7359E-02  0.7359E-02  0.2411E+00  0.2411E+00
     -1.416  0.5527E-02  0.5527E-02  0.2416E+00  0.2416E+00
     -1.312  0.3079E-02  0.3079E-02  0.2420E+00  0.2420E+00
     -1.208  0.9634E-03  0.9634E-03  0.2421E+00  0.2421E+00
     -1.105  0.1191E-03  0.1191E-03  0.2421E+00  0.2421E+00
     -1.001  0.4750E-03  0.4750E-03  0.2421E+00  0.2421E+00
     -0.897  0.2344E-02  0.2344E-02  0.2424E+00  0.2424E+00
     -0.794  0.3693E-02  0.3693E-02  0.2428E+00  0.2428E+00
     -0.690  0.4312E-02  0.4312E-02  0.2432E+00  0.2432E+00
     -0.586  0.9070E-02  0.9070E-02  0.2441E+00  0.2441E+00
     -0.482  0.1063E-01  0.1063E-01  0.2452E+00  0.2452E+00
     -0.379  0.9452E-02  0.9452E-02  0.2462E+00  0.2462E+00
     -0.275  0.1209E-01  0.1209E-01  0.2475E+00  0.2475E+00
     -0.171  0.1140E-01  0.1140E-01  0.2487E+00  0.2487E+00
     -0.068  0.7828E-02  0.7828E-02  0.2495E+00  0.2495E+00
      0.036  0.3453E-02  0.3453E-02  0.2498E+00  0.2498E+00
      0.140  0.1391E-02  0.1391E-02  0.2500E+00  0.2500E+00
      0.243  0.1913E-02  0.1913E-02  0.2502E+00  0.2502E+00
      0.347  0.6473E-02  0.6473E-02  0.2508E+00  0.2508E+00
      0.451  0.9815E-02  0.9815E-02  0.2519E+00  0.2519E+00
      0.555  0.7508E-02  0.7508E-02  0.2526E+00  0.2526E+00
      0.658  0.4128E-02  0.4128E-02  0.2531E+00  0.2531E+00
      0.762  0.7859E-02  0.7859E-02  0.2539E+00  0.2539E+00
      0.866  0.1161E-01  0.1161E-01  0.2551E+00  0.2551E+00
      0.969  0.1256E-01  0.1256E-01  0.2564E+00  0.2564E+00
      1.073  0.1050E-01  0.1050E-01  0.2575E+00  0.2575E+00
      1.177  0.4927E-02  0.4927E-02  0.2580E+00  0.2580E+00
      1.280  0.4992E-02  0.4992E-02  0.2585E+00  0.2585E+00
      1.384  0.5253E-02  0.5253E-02  0.2591E+00  0.2591E+00
      1.488  0.4742E-02  0.4742E-02  0.2595E+00  0.2595E+00
      1.591  0.5876E-02  0.5876E-02  0.2602E+00  0.2602E+00
      1.695  0.1124E-01  0.1124E-01  0.2613E+00  0.2613E+00
      1.799  0.9327E-02  0.9327E-02  0.2623E+00  0.2623E+00
      1.903  0.3570E-02  0.3570E-02  0.2627E+00  0.2627E+00
      2.006  0.2945E-02  0.2945E-02  0.2630E+00  0.2630E+00
      2.110  0.6489E-02  0.6489E-02  0.2636E+00  0.2636E+00
      2.214  0.1419E-01  0.1419E-01  0.2651E+00  0.2651E+00
      2.317  0.1545E-01  0.1545E-01  0.2667E+00  0.2667E+00
      2.421  0.1172E-01  0.1172E-01  0.2679E+00  0.2679E+00
      2.525  0.1173E-01  0.1173E-01  0.2691E+00  0.2691E+00
      2.628  0.1242E-01  0.1242E-01  0.2704E+00  0.2704E+00
      2.732  0.1068E-01  0.1068E-01  0.2715E+00  0.2715E+00
      2.836  0.7981E-02  0.7981E-02  0.2724E+00  0.2724E+00
      2.940  0.7814E-02  0.7814E-02  0.2732E+00  0.2732E+00
      3.043  0.1237E-01  0.1237E-01  0.2745E+00  0.2745E+00
      3.147  0.1363E-01  0.1363E-01  0.2759E+00  0.2759E+00
      3.251  0.1404E-01  0.1404E-01  0.2773E+00  0.2773E+00
      3.354  0.1229E-01  0.1229E-01  0.2786E+00  0.2786E+00
      3.458  0.7688E-02  0.7688E-02  0.2794E+00  0.2794E+00
      3.562  0.1024E-01  0.1024E-01  0.2805E+00  0.2805E+00
      3.665  0.1312E-01  0.1312E-01  0.2818E+00  0.2818E+00
      3.769  0.1014E-01  0.1014E-01  0.2829E+00  0.2829E+00
      3.873  0.1101E-01  0.1101E-01  0.2840E+00  0.2840E+00
      3.977  0.1757E-01  0.1757E-01  0.2858E+00  0.2858E+00
      4.080  0.1681E-01  0.1682E-01  0.2876E+00  0.2876E+00
      4.184  0.1249E-01  0.1250E-01  0.2889E+00  0.2889E+00
      4.288  0.1548E-01  0.1548E-01  0.2905E+00  0.2905E+00
      4.391  0.1752E-01  0.1751E-01  0.2923E+00  0.2923E+00
      4.495  0.1348E-01  0.1348E-01  0.2937E+00  0.2937E+00
      4.599  0.1270E-01  0.1271E-01  0.2950E+00  0.2950E+00
      4.702  0.1324E-01  0.1324E-01  0.2964E+00  0.2964E+00
      4.806  0.1702E-01  0.1702E-01  0.2981E+00  0.2981E+00
      4.910  0.1817E-01  0.1817E-01  0.3000E+00  0.3000E+00
      5.014  0.1940E-01  0.1940E-01  0.3020E+00  0.3020E+00
      5.117  0.1734E-01  0.1735E-01  0.3038E+00  0.3038E+00
      5.221  0.1615E-01  0.1615E-01  0.3055E+00  0.3055E+00
      5.325  0.1426E-01  0.1426E-01  0.3070E+00  0.3070E+00
      5.428  0.1883E-01  0.1882E-01  0.3089E+00  0.3089E+00
      5.532  0.2016E-01  0.2016E-01  0.3110E+00  0.3110E+00
      5.636  0.1465E-01  0.1465E-01  0.3126E+00  0.3126E+00
      5.739  0.1382E-01  0.1381E-01  0.3140E+00  0.3140E+00
      5.843  0.1857E-01  0.1856E-01  0.3159E+00  0.3159E+00
      5.947  0.2255E-01  0.2256E-01  0.3183E+00  0.3183E+00
      6.051  0.2360E-01  0.2359E-01  0.3207E+00  0.3207E+00
      6.154  0.2893E-01  0.2893E-01  0.3237E+00  0.3237E+00
      6.258  0.2688E-01  0.2688E-01  0.3265E+00  0.3265E+00
      6.362  0.2521E-01  0.2522E-01  0.3291E+00  0.3291E+00
      6.465  0.2095E-01  0.2096E-01  0.3313E+00  0.3313E+00
      6.569  0.1609E-01  0.1608E-01  0.3329E+00  0.3329E+00
      6.673  0.2573E-01  0.2572E-01  0.3356E+00  0.3356E+00
      6.776  0.3401E-01  0.3402E-01  0.3391E+00  0.3391E+00
      6.880  0.2949E-01  0.2950E-01  0.3422E+00  0.3422E+00
      6.984  0.2952E-01  0.2952E-01  0.3453E+00  0.3453E+00
      7.088  0.3371E-01  0.3371E-01  0.3488E+00  0.3488E+00
      7.191  0.3159E-01  0.3159E-01  0.3520E+00  0.3520E+00
      7.295  0.2709E-01  0.2709E-01  0.3548E+00  0.3548E+00
      7.399  0.3679E-01  0.3679E-01  0.3587E+00  0.3587E+00
      7.502  0.3647E-01  0.3647E-01  0.3624E+00  0.3624E+00
      7.606  0.2598E-01  0.2598E-01  0.3651E+00  0.3651E+00
      7.710  0.2676E-01  0.2675E-01  0.3679E+00  0.3679E+00
      7.813  0.2620E-01  0.2621E-01  0.3706E+00  0.3706E+00
      7.917  0.1888E-01  0.1889E-01  0.3726E+00  0.3726E+00
      8.021  0.1206E-01  0.1206E-01  0.3738E+00  0.3738E+00
      8.124  0.5818E-02  0.5821E-02  0.3744E+00  0.3744E+00
      8.228  0.1811E-02  0.1814E-02  0.3746E+00  0.3746E+00
      8.332  0.1386E-02  0.1387E-02  0.3748E+00  0.3748E+00
      8.436  0.1701E-02  0.1701E-02  0.3749E+00  0.3749E+00
      8.539  0.5210E-03  0.5209E-03  0.3750E+00  0.3750E+00
      8.643  0.2517E-04  0.2517E-04  0.3750E+00  0.3750E+00
      8.747  0.1692E-06  0.1692E-06  0.3750E+00  0.3750E+00
      8.850  0.1470E-09  0.1470E-09  0.3750E+00  0.3750E+00
      8.954  0.1585E-13  0.1585E-13  0.3750E+00  0.3750E+00
      9.058  0.0000E+00  0.0000E+00  0.3750E+00  0.3750E+00
      9.161  0.0000E+00  0.0000E+00  0.3750E+00  0.3750E+00
      9.265  0.0000E+00  0.0000E+00  0.3750E+00  0.3750E+00
      9.369  0.0000E+00  0.0000E+00  0.3750E+00  0.3750E+00
      9.473  0.0000E+00  0.0000E+00  0.3750E+00  0.3750E+00
      9.576  0.0000E+00  0.0000E+00  0.3750E+00  0.3750E+00
      9.680  0.0000E+00  0.0000E+00  0.3750E+00  0.3750E+00
      9.784  0.0000E+00  0.0000E+00  0.3750E+00  0.3750E+00
