Lattice                                 
           1
     4.356108    2.515000    0.000000
    -4.356108    2.515000    0.000000
     0.000000    0.000000   15.000000
   B    C 
   2  14
Direct configuration=     1
   0.33833034  0.66916432  0.10000000
   0.67165522  0.33584146  0.10000000
   0.16373946  0.31999962  0.10000000
   0.32250218  0.16126397  0.10000000
   0.16376430  0.84376384  0.10000000
   0.84623863  0.16123684  0.10000000
   0.68749850  0.84373000  0.10000000
   0.84626736  0.68499594  0.10000000
   0.33333267  0.16666633  0.32553333
   0.49999967  0.99999933  0.32553333
   0.33333267  0.66666633  0.32553333
   0.49999967  0.49999933  0.32553333
   0.83333267  0.16666633  0.32553333
   0.99999967  0.99999933  0.32553333
   0.83333267  0.66666633  0.32553333
   0.99999967  0.49999933  0.32553333
Direct configuration=     2
   0.33834443  0.66917101  0.10017003
   0.67169353  0.33582061  0.09997918
   0.16737081  0.32726807  0.09994503
   0.32950009  0.16475910  0.10001654
   0.16740160  0.84012110  0.09994504
   0.84271202  0.16474526  0.10001607
   0.68022830  0.84011451  0.09994477
   0.84273726  0.67799229  0.10001606
   0.33337743  0.16668761  0.32554259
   0.50012631  0.00027008  0.32558463
   0.33332892  0.66666340  0.32532717
   0.50012631  0.49985743  0.32558462
   0.83331952  0.16669159  0.32553911
   0.00000494  0.00000307  0.32553071
   0.83331956  0.66662579  0.32553913
   0.99973429  0.49986774  0.32558600
Direct configuration=     3
   0.33833408  0.66916609  0.10004507
   0.67166537  0.33583593  0.09999448
   0.16470211  0.32192644  0.09998543
   0.32435729  0.16219050  0.10000438
   0.16472853  0.84279817  0.09998543
   0.84530375  0.16216690  0.10000426
   0.68557122  0.84277156  0.09998536
   0.84533155  0.68313932  0.10000426
   0.33334453  0.16667197  0.32553579
   0.50003324  0.00007111  0.32554693
   0.33333167  0.66666556  0.32547868
   0.50003324  0.49996172  0.32554693
   0.83332918  0.16667303  0.32553486
   0.00000107  0.00000032  0.32553264
   0.83332919  0.66665558  0.32553487
   0.99992932  0.49996445  0.32554729
Direct configuration=     4
   0.33833408  0.66916609  0.10004504
   0.67166537  0.33583594  0.09999448
   0.16470145  0.32192511  0.09998544
   0.32435600  0.16218986  0.10000438
   0.16472786  0.84279884  0.09998544
   0.84530440  0.16216626  0.10000426
   0.68557255  0.84277222  0.09998537
   0.84533219  0.68314060  0.10000425
   0.33334452  0.16667197  0.32553578
   0.50003322  0.00007106  0.32554692
   0.33333167  0.66666556  0.32547872
   0.50003322  0.49996174  0.32554692
   0.83332918  0.16667302  0.32553486
   0.00000106  0.00000032  0.32553264
   0.83332919  0.66665559  0.32553487
   0.99992937  0.49996447  0.32554728
Direct configuration=     5
   0.33833835  0.66916633  0.10015359
   0.67166882  0.33583238  0.09997754
   0.16469975  0.32192852  0.09995927
   0.32434559  0.16217898  0.10000772
   0.16471819  0.84278928  0.09995927
   0.84531953  0.16216407  0.10000736
   0.68556173  0.84277686  0.09995888
   0.84533588  0.68315542  0.10000736
   0.33335636  0.16667804  0.32554792
   0.50004409  0.00009185  0.32557340
   0.33333092  0.66666531  0.32534925
   0.50004409  0.49995158  0.32557340
   0.83332382  0.16667975  0.32554472
   0.00000330  0.00000132  0.32552770
   0.83332381  0.66664377  0.32554472
   0.99991109  0.49995522  0.32557459
Direct configuration=     6
   0.33833958  0.66916640  0.10018490
   0.67166981  0.33583135  0.09997265
   0.16469927  0.32192950  0.09995171
   0.32434259  0.16217584  0.10000868
   0.16471540  0.84278652  0.09995172
   0.84532389  0.16216343  0.10000825
   0.68555861  0.84277820  0.09995124
   0.84533695  0.68315970  0.10000825
   0.33335977  0.16667979  0.32555142
   0.50004722  0.00009785  0.32558104
   0.33333071  0.66666524  0.32531190
   0.50004723  0.49994864  0.32558103
   0.83332228  0.16668169  0.32554756
   0.00000395  0.00000161  0.32552627
   0.83332226  0.66664036  0.32554757
   0.99990582  0.49995255  0.32558246
Direct configuration=     7
   0.33831640  0.66916347  0.10024719
   0.67167146  0.33583861  0.09997696
   0.16472685  0.32190795  0.09996617
   0.32435070  0.16218427  0.09998352
   0.16472358  0.84280630  0.09996617
   0.84529253  0.16217254  0.09998271
   0.68560317  0.84278655  0.09996531
   0.84529356  0.68312716  0.09998273
   0.33333730  0.16666807  0.32557598
   0.50002364  0.00005012  0.32556144
   0.33333619  0.66666752  0.32526935
   0.50002362  0.49997380  0.32556145
   0.83333770  0.16666841  0.32557119
   0.00000052  0.00000039  0.32552258
   0.83333772  0.66666818  0.32557117
   0.99995039  0.49997532  0.32556275
Direct configuration=     8
   0.33832219  0.66916420  0.10023165
   0.67167105  0.33583680  0.09997588
   0.16471997  0.32191333  0.09996257
   0.32434867  0.16218216  0.09998980
   0.16472154  0.84280137  0.09996256
   0.84530036  0.16217027  0.09998909
   0.68559206  0.84278447  0.09996180
   0.84530438  0.68313528  0.09998910
   0.33334291  0.16667100  0.32556985
   0.50002953  0.00006203  0.32556633
   0.33333482  0.66666695  0.32527997
   0.50002951  0.49996752  0.32556633
   0.83333385  0.16667172  0.32556529
   0.00000137  0.00000070  0.32552350
   0.83333386  0.66666124  0.32556528
   0.99993927  0.49996964  0.32556767
Direct configuration=     9
   0.33834916  0.66916908  0.10028371
   0.67164678  0.33582919  0.09997930
   0.16466444  0.32192060  0.09998063
   0.32437497  0.16216950  0.09996829
   0.16466985  0.84277002  0.09998069
   0.84536331  0.16218363  0.09996711
   0.68553219  0.84278341  0.09997944
   0.84536870  0.68315671  0.09996714
   0.33335334  0.16667682  0.32558533
   0.50004560  0.00008903  0.32554152
   0.33333206  0.66666625  0.32525749
   0.50004566  0.49995551  0.32554152
   0.83332674  0.16667832  0.32558028
   0.00000666  0.00000279  0.32553153
   0.83332676  0.66664875  0.32558028
   0.99991909  0.49995905  0.32554241
Direct configuration=    10
   0.33833237  0.66916604  0.10025130
   0.67166189  0.33583393  0.09997717
   0.16469901  0.32191607  0.09996938
   0.32435860  0.16217738  0.09998168
   0.16470203  0.84278953  0.09996941
   0.84532412  0.16217531  0.09998079
   0.68556946  0.84278407  0.09996846
   0.84532867  0.68314337  0.09998081
   0.33334685  0.16667319  0.32557570
   0.50003559  0.00007222  0.32555696
   0.33333378  0.66666669  0.32527148
   0.50003561  0.49996299  0.32555697
   0.83333117  0.16667421  0.32557095
   0.00000337  0.00000149  0.32552653
   0.83333118  0.66665652  0.32557094
   0.99993165  0.49996564  0.32555813
Direct configuration=    11
   0.33833299  0.66916615  0.10025251
   0.67166132  0.33583375  0.09997725
   0.16469772  0.32191624  0.09996980
   0.32435921  0.16217709  0.09998118
   0.16470083  0.84278881  0.09996983
   0.84532558  0.16217562  0.09998028
   0.68556807  0.84278405  0.09996887
   0.84533015  0.68314386  0.09998030
   0.33334709  0.16667333  0.32557605
   0.50003596  0.00007284  0.32555639
   0.33333372  0.66666667  0.32527096
   0.50003598  0.49996271  0.32555639
   0.83333100  0.16667437  0.32557130
   0.00000349  0.00000153  0.32552672
   0.83333102  0.66665623  0.32557129
   0.99993119  0.49996540  0.32555755
Direct configuration=    12
   0.33832995  0.66916492  0.10028187
   0.67167352  0.33583051  0.09997568
   0.16471881  0.32193221  0.09997980
   0.32432868  0.16216754  0.09997509
   0.16472047  0.84278260  0.09997982
   0.84531685  0.16216235  0.09997377
   0.68556242  0.84278092  0.09997846
   0.84531586  0.68315967  0.09997379
   0.33336262  0.16668134  0.32557559
   0.50005210  0.00010358  0.32554210
   0.33333276  0.66666637  0.32526359
   0.50005209  0.49994778  0.32554210
   0.83332404  0.16668331  0.32557081
   0.00000679  0.00000303  0.32554058
   0.83332402  0.66664075  0.32557081
   0.99990434  0.49995179  0.32554281
Direct configuration=    13
   0.33833142  0.66916552  0.10026767
   0.67166763  0.33583208  0.09997644
   0.16470861  0.32192449  0.09997497
   0.32434344  0.16217216  0.09997803
   0.16471098  0.84278560  0.09997499
   0.84532107  0.16216876  0.09997692
   0.68556515  0.84278243  0.09997382
   0.84532277  0.68315203  0.09997694
   0.33335511  0.16667747  0.32557581
   0.50004430  0.00008872  0.32554901
   0.33333322  0.66666652  0.32526716
   0.50004430  0.49995500  0.32554901
   0.83332741  0.16667898  0.32557105
   0.00000520  0.00000231  0.32553388
   0.83332740  0.66664824  0.32557104
   0.99991732  0.49995837  0.32554994
Direct configuration=    14
   0.33832785  0.66916372  0.10028025
   0.67166805  0.33583309  0.09997324
   0.16471041  0.32191868  0.09997779
   0.32434525  0.16217391  0.09998167
   0.16470932  0.84278860  0.09997780
   0.84531463  0.16217134  0.09998025
   0.68557388  0.84278503  0.09997641
   0.84531348  0.68314459  0.09998028
   0.33335309  0.16667620  0.32556902
   0.50003926  0.00007872  0.32554404
   0.33333600  0.66666764  0.32526466
   0.50003925  0.49996048  0.32554404
   0.83333183  0.16667745  0.32556436
   0.00000445  0.00000220  0.32554379
   0.83333182  0.66665368  0.32556436
   0.99992677  0.49996334  0.32554471
Direct configuration=    15
   0.33832678  0.66916318  0.10028400
   0.67166818  0.33583339  0.09997229
   0.16471094  0.32191696  0.09997863
   0.32434579  0.16217443  0.09998275
   0.16470883  0.84278949  0.09997863
   0.84531271  0.16217210  0.09998124
   0.68557648  0.84278581  0.09997718
   0.84531071  0.68314237  0.09998127
   0.33335249  0.16667583  0.32556700
   0.50003776  0.00007574  0.32554256
   0.33333683  0.66666798  0.32526391
   0.50003775  0.49996211  0.32554256
   0.83333315  0.16667699  0.32556238
   0.00000423  0.00000217  0.32554674
   0.83333314  0.66665530  0.32556237
   0.99992958  0.49996482  0.32554315
Direct configuration=    16
   0.33832983  0.66916387  0.10029224
   0.67166224  0.33583217  0.09997083
   0.16470204  0.32191659  0.09998202
   0.32435046  0.16217278  0.09998683
   0.16470058  0.84278549  0.09998201
   0.84532087  0.16217396  0.09998501
   0.68556747  0.84278519  0.09998031
   0.84531964  0.68314401  0.09998505
   0.33335231  0.16667596  0.32556154
   0.50004061  0.00007820  0.32553824
   0.33333646  0.66666804  0.32526136
   0.50004061  0.49996206  0.32553824
   0.83333283  0.16667712  0.32555697
   0.00000640  0.00000302  0.32555037
   0.83333283  0.66665531  0.32555697
   0.99993015  0.49996490  0.32553870
Direct configuration=    17
   0.33833009  0.66916393  0.10029295
   0.67166173  0.33583206  0.09997070
   0.16470127  0.32191656  0.09998231
   0.32435087  0.16217263  0.09998718
   0.16469987  0.84278515  0.09998230
   0.84532158  0.16217412  0.09998534
   0.68556669  0.84278514  0.09998058
   0.84532041  0.68314415  0.09998538
   0.33335230  0.16667597  0.32556107
   0.50004086  0.00007841  0.32553786
   0.33333643  0.66666805  0.32526114
   0.50004086  0.49996206  0.32553786
   0.83333280  0.16667713  0.32555650
   0.00000658  0.00000310  0.32555068
   0.83333280  0.66665531  0.32555650
   0.99993020  0.49996491  0.32553831
Direct configuration=    18
   0.33832877  0.66916410  0.10029935
   0.67166088  0.33583083  0.09997109
   0.16470413  0.32191986  0.09998716
   0.32434476  0.16216992  0.09999175
   0.16470301  0.84278311  0.09998715
   0.84532045  0.16217086  0.09998956
   0.68556258  0.84278302  0.09998510
   0.84531947  0.68314774  0.09998960
   0.33335514  0.16667756  0.32555632
   0.50004590  0.00008581  0.32553294
   0.33333636  0.66666819  0.32525778
   0.50004591  0.49995938  0.32553294
   0.83333170  0.16667890  0.32555178
   0.00000881  0.00000404  0.32554902
   0.83333170  0.66665280  0.32555178
   0.99992577  0.49996253  0.32553334
Direct configuration=    19
   0.33832481  0.66916460  0.10031856
   0.67165834  0.33582716  0.09997227
   0.16471272  0.32192979  0.10000169
   0.32432643  0.16216178  0.10000547
   0.16471241  0.84277700  0.10000168
   0.84531708  0.16216108  0.10000222
   0.68555023  0.84277668  0.09999866
   0.84531664  0.68315851  0.10000226
   0.33336367  0.16668235  0.32554209
   0.50006103  0.00010800  0.32551819
   0.33333614  0.66666863  0.32524769
   0.50006104  0.49995133  0.32551819
   0.83332839  0.16668419  0.32553761
   0.00001549  0.00000688  0.32554404
   0.83332842  0.66664528  0.32553762
   0.99991249  0.49995540  0.32551842
Direct configuration=    20
   0.33832697  0.66916433  0.10030808
   0.67165972  0.33582916  0.09997163
   0.16470803  0.32192438  0.09999376
   0.32433643  0.16216622  0.09999799
   0.16470728  0.84278033  0.09999375
   0.84531892  0.16216642  0.09999532
   0.68555697  0.84278014  0.09999126
   0.84531818  0.68315263  0.09999535
   0.33335901  0.16667974  0.32554985
   0.50005277  0.00009589  0.32552624
   0.33333626  0.66666839  0.32525319
   0.50005278  0.49995572  0.32552624
   0.83333019  0.16668130  0.32554534
   0.00001184  0.00000533  0.32554676
   0.83333021  0.66664939  0.32554535
   0.99991974  0.49995929  0.32552656
Direct configuration=    21
   0.33832506  0.66916309  0.10031182
   0.67166014  0.33582915  0.09997369
   0.16470759  0.32192258  0.09999836
   0.32433535  0.16216634  0.10000167
   0.16470633  0.84278088  0.09999835
   0.84531578  0.16216647  0.09999869
   0.68555911  0.84278039  0.09999558
   0.84531459  0.68315038  0.09999872
   0.33336063  0.16668034  0.32554667
   0.50005161  0.00009376  0.32552222
   0.33333857  0.66666933  0.32524969
   0.50005161  0.49995713  0.32552222
   0.83333270  0.16668187  0.32554214
   0.00001171  0.00000549  0.32554215
   0.83333270  0.66665090  0.32554215
   0.99992186  0.49996057  0.32552255
Direct configuration=    22
   0.33831931  0.66915936  0.10032304
   0.67166139  0.33582910  0.09997989
   0.16470627  0.32191721  0.10001216
   0.32433210  0.16216669  0.10001271
   0.16470347  0.84278253  0.10001216
   0.84530637  0.16216661  0.10000881
   0.68556553  0.84278113  0.10000852
   0.84530384  0.68314363  0.10000883
   0.33336547  0.16668216  0.32553710
   0.50004810  0.00008735  0.32551016
   0.33334549  0.66667214  0.32523916
   0.50004809  0.49996138  0.32551017
   0.83334020  0.16668357  0.32553254
   0.00001132  0.00000597  0.32552835
   0.83334017  0.66665543  0.32553255
   0.99992822  0.49996441  0.32551052
Direct configuration=    23
   0.33831656  0.66915759  0.10032840
   0.67166198  0.33582908  0.09998285
   0.16470564  0.32191464  0.10001876
   0.32433054  0.16216685  0.10001799
   0.16470211  0.84278332  0.10001875
   0.84530187  0.16216668  0.10001364
   0.68556860  0.84278148  0.10001470
   0.84529869  0.68314040  0.10001366
   0.33336778  0.16668302  0.32553253
   0.50004643  0.00008429  0.32550440
   0.33334880  0.66667349  0.32523414
   0.50004640  0.49996340  0.32550441
   0.83334378  0.16668438  0.32552795
   0.00001113  0.00000619  0.32552175
   0.83334374  0.66665760  0.32552796
   0.99993126  0.49996625  0.32550478
Direct configuration=    24
   0.33831107  0.66915403  0.10033912
   0.67166318  0.33582904  0.09998877
   0.16470437  0.32190950  0.10003195
   0.32432743  0.16216719  0.10002854
   0.16469938  0.84278489  0.10003195
   0.84529288  0.16216682  0.10002331
   0.68557474  0.84278219  0.10002707
   0.84528841  0.68313394  0.10002332
   0.33337241  0.16668476  0.32552339
   0.50004308  0.00007817  0.32549288
   0.33335541  0.66667618  0.32522408
   0.50004304  0.49996746  0.32549289
   0.83335095  0.16668600  0.32551878
   0.00001075  0.00000665  0.32550856
   0.83335088  0.66666193  0.32551878
   0.99993734  0.49996992  0.32549328
Direct configuration=    25
   0.33831093  0.66915374  0.10034123
   0.67166204  0.33582871  0.09999037
   0.16470235  0.32190871  0.10003459
   0.32432794  0.16216706  0.10003078
   0.16469753  0.84278437  0.10003459
   0.84529316  0.16216701  0.10002538
   0.68557361  0.84278207  0.10002953
   0.84528878  0.68313335  0.10002538
   0.33337260  0.16668489  0.32552141
   0.50004366  0.00007800  0.32549065
   0.33335586  0.66667645  0.32522179
   0.50004362  0.49996815  0.32549065
   0.83335151  0.16668611  0.32551679
   0.00001157  0.00000702  0.32550566
   0.83335144  0.66666246  0.32551680
   0.99993873  0.49997058  0.32549106
Direct configuration=    26
   0.33831051  0.66915286  0.10034757
   0.67165863  0.33582771  0.09999518
   0.16469628  0.32190634  0.10004251
   0.32432947  0.16216667  0.10003751
   0.16469198  0.84278279  0.10004251
   0.84529402  0.16216758  0.10003156
   0.68557023  0.84278170  0.10003694
   0.84528989  0.68313156  0.10003156
   0.33337315  0.16668530  0.32551549
   0.50004541  0.00007748  0.32548394
   0.33335721  0.66667725  0.32521492
   0.50004536  0.49997022  0.32548394
   0.83335318  0.16668644  0.32551084
   0.00001402  0.00000815  0.32549695
   0.83335311  0.66666405  0.32551085
   0.99994290  0.49997257  0.32548438
Direct configuration=    27
   0.33830968  0.66915110  0.10036025
   0.67165181  0.33582572  0.10000480
   0.16468413  0.32190161  0.10005836
   0.32433252  0.16216590  0.10005097
   0.16468088  0.84277963  0.10005836
   0.84529573  0.16216873  0.10004393
   0.68556345  0.84278096  0.10005175
   0.84529211  0.68312798  0.10004391
   0.33337425  0.16668611  0.32550364
   0.50004890  0.00007644  0.32547052
   0.33335990  0.66667886  0.32520118
   0.50004885  0.49997435  0.32547053
   0.83335653  0.16668710  0.32549894
   0.00001892  0.00001040  0.32547954
   0.83335645  0.66666724  0.32549894
   0.99995122  0.49997654  0.32547103
Direct configuration=    28
   0.33830942  0.66915056  0.10036416
   0.67164971  0.33582511  0.10000776
   0.16468039  0.32190015  0.10006324
   0.32433346  0.16216566  0.10005512
   0.16467746  0.84277866  0.10006324
   0.84529625  0.16216908  0.10004774
   0.68556137  0.84278073  0.10005631
   0.84529279  0.68312688  0.10004772
   0.33337459  0.16668636  0.32550000
   0.50004997  0.00007611  0.32546639
   0.33336073  0.66667936  0.32519695
   0.50004993  0.49997563  0.32546640
   0.83335756  0.16668731  0.32549527
   0.00002043  0.00001109  0.32547418
   0.83335748  0.66666822  0.32549528
   0.99995379  0.49997776  0.32546692
Direct configuration=    29
   0.33830891  0.66914948  0.10037196
   0.67164551  0.33582388  0.10001369
   0.16467291  0.32189723  0.10007300
   0.32433535  0.16216519  0.10006341
   0.16467063  0.84277672  0.10007300
   0.84529730  0.16216979  0.10005535
   0.68555720  0.84278028  0.10006543
   0.84529416  0.68312468  0.10005532
   0.33337527  0.16668685  0.32549270
   0.50005212  0.00007547  0.32545813
   0.33336239  0.66668035  0.32518849
   0.50005208  0.49997817  0.32545813
   0.83335961  0.16668772  0.32548794
   0.00002344  0.00001248  0.32546346
   0.83335953  0.66667018  0.32548795
   0.99995892  0.49998020  0.32545870
Direct configuration=    30
   0.33830788  0.66914732  0.10038758
   0.67163712  0.33582143  0.10002553
   0.16465796  0.32189140  0.10009251
   0.32433911  0.16216424  0.10007998
   0.16465696  0.84277283  0.10009252
   0.84529941  0.16217120  0.10007058
   0.68554886  0.84277937  0.10008366
   0.84529689  0.68312028  0.10007053
   0.33337663  0.16668785  0.32547811
   0.50005642  0.00007419  0.32544161
   0.33336570  0.66668233  0.32517157
   0.50005638  0.49998327  0.32544161
   0.83336373  0.16668854  0.32547328
   0.00002947  0.00001525  0.32544202
   0.83336365  0.66667410  0.32547329
   0.99996917  0.49998509  0.32544226
Direct configuration=    31
   0.33830852  0.66914866  0.10037787
   0.67164234  0.33582295  0.10001816
   0.16466726  0.32189503  0.10008038
   0.32433677  0.16216483  0.10006967
   0.16466546  0.84277525  0.10008038
   0.84529810  0.16217032  0.10006111
   0.68555404  0.84277993  0.10007232
   0.84529519  0.68312302  0.10006107
   0.33337579  0.16668723  0.32548719
   0.50005375  0.00007499  0.32545188
   0.33336364  0.66668110  0.32518210
   0.50005370  0.49998010  0.32545189
   0.83336117  0.16668803  0.32548240
   0.00002572  0.00001352  0.32545536
   0.83336109  0.66667166  0.32548241
   0.99996279  0.49998205  0.32545248
Direct configuration=    32
   0.33830820  0.66914799  0.10038272
   0.67163973  0.33582219  0.10002185
   0.16466261  0.32189321  0.10008645
   0.32433794  0.16216453  0.10007483
   0.16466121  0.84277404  0.10008645
   0.84529875  0.16217076  0.10006585
   0.68555145  0.84277965  0.10007799
   0.84529604  0.68312165  0.10006580
   0.33337621  0.16668754  0.32548265
   0.50005508  0.00007459  0.32544675
   0.33336467  0.66668172  0.32517684
   0.50005504  0.49998168  0.32544675
   0.83336245  0.16668828  0.32547784
   0.00002760  0.00001439  0.32544869
   0.83336237  0.66667288  0.32547785
   0.99996598  0.49998357  0.32544737
Direct configuration=    33
   0.33830588  0.66914761  0.10039055
   0.67163636  0.33582044  0.10002908
   0.16466216  0.32189395  0.10009536
   0.32433374  0.16216256  0.10008352
   0.16466127  0.84277221  0.10009536
   0.84529676  0.16216787  0.10007388
   0.68554656  0.84277728  0.10008625
   0.84529450  0.68312262  0.10007383
   0.33337743  0.16668849  0.32547461
   0.50006061  0.00007935  0.32543919
   0.33336514  0.66668231  0.32516779
   0.50006057  0.49998183  0.32543919
   0.83336275  0.16668924  0.32546978
   0.00003175  0.00001615  0.32543865
   0.83336268  0.66667291  0.32546978
   0.99996717  0.49998385  0.32543984
Direct configuration=    34
   0.33829892  0.66914648  0.10041404
   0.67162627  0.33581517  0.10005078
   0.16466080  0.32189615  0.10012208
   0.32432116  0.16215663  0.10010961
   0.16466143  0.84276672  0.10012208
   0.84529077  0.16215921  0.10009797
   0.68553191  0.84277016  0.10011104
   0.84528989  0.68312554  0.10009790
   0.33338109  0.16669133  0.32545048
   0.50007721  0.00009366  0.32541651
   0.33336653  0.66668407  0.32514067
   0.50007717  0.49998226  0.32541651
   0.83336364  0.16669213  0.32544558
   0.00004421  0.00002143  0.32540854
   0.83336361  0.66667302  0.32544558
   0.99997072  0.49998470  0.32541727
Direct configuration=    35
   0.33829620  0.66914618  0.10041388
   0.67162912  0.33581533  0.10005262
   0.16466815  0.32189863  0.10011991
   0.32431518  0.16215556  0.10010967
   0.16466778  0.84276812  0.10011991
   0.84528596  0.16215662  0.10009809
   0.68553494  0.84276905  0.10010890
   0.84528489  0.68312711  0.10009802
   0.33338458  0.16669268  0.32544978
   0.50007632  0.00009589  0.32541788
   0.33336845  0.66668463  0.32514076
   0.50007629  0.49997993  0.32541789
   0.83336490  0.16669363  0.32544490
   0.00004211  0.00002078  0.32541090
   0.83336487  0.66667200  0.32544491
   0.99996558  0.49998253  0.32541863
Direct configuration=    36
   0.33829254  0.66914579  0.10041367
   0.67163296  0.33581554  0.10005511
   0.16467806  0.32190196  0.10011698
   0.32430712  0.16215412  0.10010975
   0.16467633  0.84277002  0.10011698
   0.84527947  0.16215313  0.10009826
   0.68553903  0.84276755  0.10010601
   0.84527815  0.68312924  0.10009818
   0.33338929  0.16669450  0.32544884
   0.50007513  0.00009889  0.32541974
   0.33337104  0.66668538  0.32514089
   0.50007510  0.49997680  0.32541974
   0.83336660  0.16669564  0.32544399
   0.00003929  0.00001990  0.32541407
   0.83336657  0.66667062  0.32544400
   0.99995866  0.49997959  0.32542046
Direct configuration=    37
   0.33829360  0.66914615  0.10041388
   0.67163166  0.33581514  0.10005863
   0.16467608  0.32190257  0.10011511
   0.32430794  0.16215361  0.10011057
   0.16467468  0.84276908  0.10011511
   0.84528195  0.16215308  0.10009909
   0.68553611  0.84276690  0.10010413
   0.84528102  0.68313047  0.10009902
   0.33339034  0.16669502  0.32544742
   0.50007597  0.00010072  0.32542050
   0.33337112  0.66668542  0.32514038
   0.50007595  0.49997584  0.32542051
   0.83336631  0.16669623  0.32544260
   0.00003936  0.00001996  0.32541590
   0.83336629  0.66666974  0.32544260
   0.99995694  0.49997875  0.32542121
Direct configuration=    38
   0.33829656  0.66914715  0.10041449
   0.67162803  0.33581404  0.10006850
   0.16467053  0.32190427  0.10010988
   0.32431024  0.16215216  0.10011284
   0.16467008  0.84276645  0.10010989
   0.84528889  0.16215295  0.10010143
   0.68552797  0.84276507  0.10009889
   0.84528902  0.68313393  0.10010137
   0.33339327  0.16669646  0.32544344
   0.50007832  0.00010582  0.32542265
   0.33337137  0.66668552  0.32513895
   0.50007834  0.49997318  0.32542265
   0.83336551  0.16669789  0.32543869
   0.00003956  0.00002012  0.32542099
   0.83336552  0.66666726  0.32543870
   0.99995213  0.49997640  0.32542330
Direct configuration=    39
   0.33829477  0.66914680  0.10041430
   0.67162940  0.33581430  0.10007502
   0.16467187  0.32190293  0.10010826
   0.32430954  0.16215324  0.10011378
   0.16467145  0.84276752  0.10010827
   0.84528560  0.16215278  0.10010238
   0.68553116  0.84276581  0.10009722
   0.84528519  0.68313148  0.10010233
   0.33339105  0.16669560  0.32544216
   0.50007873  0.00010377  0.32542231
   0.33337045  0.66668529  0.32513866
   0.50007875  0.49997513  0.32542231
   0.83336500  0.16669697  0.32543745
   0.00004103  0.00002061  0.32542182
   0.83336501  0.66666817  0.32543745
   0.99995634  0.49997826  0.32542294
Direct configuration=    40
   0.33829254  0.66914636  0.10041406
   0.67163110  0.33581463  0.10008310
   0.16467354  0.32190127  0.10010625
   0.32430867  0.16215459  0.10011495
   0.16467315  0.84276883  0.10010626
   0.84528153  0.16215256  0.10010357
   0.68553511  0.84276673  0.10009515
   0.84528044  0.68312846  0.10010353
   0.33338829  0.16669452  0.32544057
   0.50007924  0.00010123  0.32542190
   0.33336930  0.66668501  0.32513830
   0.50007925  0.49997756  0.32542189
   0.83336437  0.16669583  0.32543590
   0.00004286  0.00002123  0.32542285
   0.83336439  0.66666931  0.32543589
   0.99996156  0.49998055  0.32542249
Direct configuration=    41
   0.33829312  0.66914607  0.10041329
   0.67162971  0.33581422  0.10008978
   0.16467086  0.32190064  0.10010630
   0.32431017  0.16215456  0.10011551
   0.16467037  0.84276850  0.10010630
   0.84528271  0.16215307  0.10010412
   0.68553357  0.84276639  0.10009513
   0.84528212  0.68312824  0.10010409
   0.33338868  0.16669450  0.32544031
   0.50007775  0.00009956  0.32542009
   0.33337103  0.66668566  0.32513830
   0.50007777  0.49997819  0.32542009
   0.83336654  0.16669580  0.32543565
   0.00004202  0.00002102  0.32542138
   0.83336657  0.66667110  0.32543565
   0.99996234  0.49998117  0.32542068
Direct configuration=    42
   0.33829379  0.66914573  0.10041239
   0.67162811  0.33581374  0.10009753
   0.16466776  0.32189992  0.10010635
   0.32431192  0.16215452  0.10011616
   0.16466714  0.84276810  0.10010635
   0.84528408  0.16215365  0.10010476
   0.68553178  0.84276599  0.10009511
   0.84528408  0.68312799  0.10010475
   0.33338912  0.16669447  0.32544002
   0.50007602  0.00009762  0.32541799
   0.33337304  0.66668641  0.32513830
   0.50007604  0.49997891  0.32541799
   0.83336907  0.16669576  0.32543537
   0.00004105  0.00002078  0.32541967
   0.83336910  0.66667318  0.32543536
   0.99996323  0.49998189  0.32541857
Direct configuration=    43
   0.33829194  0.66914552  0.10041173
   0.67162856  0.33581342  0.10010330
   0.16467087  0.32190112  0.10010775
   0.32430758  0.16215347  0.10011720
   0.16467045  0.84276825  0.10010775
   0.84528145  0.16215153  0.10010576
   0.68553188  0.84276489  0.10009642
   0.84528121  0.68312901  0.10010576
   0.33339078  0.16669541  0.32543955
   0.50007860  0.00010105  0.32541563
   0.33337290  0.66668646  0.32513736
   0.50007861  0.49997788  0.32541563
   0.83336829  0.16669679  0.32543489
   0.00004232  0.00002134  0.32541685
   0.83336830  0.66667157  0.32543488
   0.99996156  0.49998095  0.32541622
Direct configuration=    44
   0.33829131  0.66914546  0.10041150
   0.67162872  0.33581331  0.10010526
   0.16467193  0.32190153  0.10010823
   0.32430610  0.16215311  0.10011755
   0.16467158  0.84276830  0.10010822
   0.84528055  0.16215080  0.10010610
   0.68553191  0.84276452  0.10009686
   0.84528024  0.68312936  0.10010611
   0.33339135  0.16669573  0.32543939
   0.50007948  0.00010223  0.32541482
   0.33337286  0.66668648  0.32513704
   0.50007949  0.49997752  0.32541482
   0.83336803  0.16669714  0.32543473
   0.00004276  0.00002152  0.32541589
   0.83336803  0.66667102  0.32543472
   0.99996099  0.49998064  0.32541541
Direct configuration=    45
   0.33829139  0.66914540  0.10041177
   0.67162712  0.33581285  0.10010818
   0.16466919  0.32190109  0.10011027
   0.32430644  0.16215266  0.10011944
   0.16466952  0.84276708  0.10011026
   0.84528162  0.16215072  0.10010791
   0.68552956  0.84276421  0.10009881
   0.84528160  0.68312934  0.10010793
   0.33339256  0.16669648  0.32543799
   0.50008159  0.00010430  0.32541297
   0.33337283  0.66668662  0.32513483
   0.50008159  0.49997732  0.32541297
   0.83336757  0.16669791  0.32543330
   0.00004425  0.00002215  0.32541316
   0.83336756  0.66667006  0.32543330
   0.99996093  0.49998048  0.32541358
Direct configuration=    46
   0.33829162  0.66914521  0.10041259
   0.67162233  0.33581146  0.10011695
   0.16466095  0.32189979  0.10011639
   0.32430745  0.16215131  0.10012508
   0.16466332  0.84276341  0.10011637
   0.84528483  0.16215046  0.10011334
   0.68552250  0.84276330  0.10010466
   0.84528570  0.68312930  0.10011339
   0.33339621  0.16669872  0.32543379
   0.50008792  0.00011051  0.32540742
   0.33337274  0.66668704  0.32512818
   0.50008791  0.49997672  0.32540742
   0.83336620  0.16670020  0.32542903
   0.00004875  0.00002404  0.32540495
   0.83336616  0.66666718  0.32542903
   0.99996075  0.49998002  0.32540808
Direct configuration=    47
   0.33829157  0.66914525  0.10041242
   0.67162332  0.33581175  0.10011513
   0.16466266  0.32190006  0.10011512
   0.32430724  0.16215159  0.10012391
   0.16466461  0.84276417  0.10011510
   0.84528416  0.16215051  0.10011221
   0.68552397  0.84276349  0.10010344
   0.84528485  0.68312931  0.10011226
   0.33339545  0.16669825  0.32543467
   0.50008660  0.00010922  0.32540857
   0.33337276  0.66668695  0.32512956
   0.50008660  0.49997684  0.32540857
   0.83336648  0.16669972  0.32542991