 ----------------------------------------------------
    OOO  PPPP  EEEEE N   N M   M PPPP
   O   O P   P E     NN  N MM MM P   P
   O   O PPPP  EEEEE N N N M M M PPPP   -- VERSION
   O   O P     E     N  NN M   M P
    OOO  P     EEEEE N   N M   M P
 ----------------------------------------------------
 running   24 mpi-ranks, with    1 threads/rank
 distrk:  each k-point on   24 cores,    1 groups
 distr:  one band on    1 cores,   24 groups
 vasp.6.3.2 27Jun22 (build Dec 22 2022 13:13:19) complex                        
  
 POSCAR found type information on POSCAR B C 
 POSCAR found :  2 types and      15 ions
 Reading from existing POTCAR
 scaLAPACK will be used
 Reading from existing POTCAR
 LDA part: xc-table for Pade appr. of Perdew
 POSCAR found type information on POSCAR B C 
 POSCAR found :  2 types and      15 ions
 POSCAR, INCAR and KPOINTS ok, starting setup
 FFT: planning ... GRIDC
 FFT: planning ... GRID_SOFT
 FFT: planning ... GRID
 WAVECAR not read
 entering main loop
       N       E                     dE             d eps       ncg     rms          rms(c)
DAV:   1     0.260393297653E+03    0.26039E+03   -0.23269E+04  7104   0.863E+02
DAV:   2    -0.108991022573E+03   -0.36938E+03   -0.35585E+03  8904   0.207E+02
DAV:   3    -0.135060633797E+03   -0.26070E+02   -0.25896E+02 10632   0.604E+01
DAV:   4    -0.135499505958E+03   -0.43887E+00   -0.43842E+00  9432   0.917E+00
DAV:   5    -0.135514687054E+03   -0.15181E-01   -0.15176E-01 10992   0.154E+00    0.173E+01
DAV:   6    -0.127769228120E+03    0.77455E+01   -0.11949E+01 10248   0.104E+01    0.949E+00
DAV:   7    -0.125691494584E+03    0.20777E+01   -0.43186E+00 10656   0.684E+00    0.378E+00
DAV:   8    -0.125537300099E+03    0.15419E+00   -0.60175E-01 10584   0.254E+00    0.101E+00
DAV:   9    -0.125513450812E+03    0.23849E-01   -0.45078E-02  9216   0.782E-01    0.184E-01
DAV:  10    -0.125502768643E+03    0.10682E-01   -0.60730E-03 10464   0.267E-01    0.148E-01
DAV:  11    -0.125496230799E+03    0.65378E-02   -0.67418E-03  9792   0.217E-01    0.775E-02
DAV:  12    -0.125496469648E+03   -0.23885E-03   -0.11368E-03  7632   0.101E-01    0.482E-02
DAV:  13    -0.125498279144E+03   -0.18095E-02   -0.41977E-04  9096   0.618E-02    0.214E-02
DAV:  14    -0.125500132313E+03   -0.18532E-02   -0.12570E-04  9240   0.297E-02    0.119E-02
DAV:  15    -0.125501478429E+03   -0.13461E-02   -0.17760E-04  9192   0.272E-02    0.618E-03
DAV:  16    -0.125501670107E+03   -0.19168E-03   -0.17312E-05  9648   0.930E-03    0.185E-03
DAV:  17    -0.125501719819E+03   -0.49712E-04   -0.34954E-06  8952   0.399E-03    0.687E-04
DAV:  18    -0.125501726849E+03   -0.70303E-05   -0.26766E-07  7968   0.130E-03    0.218E-04
DAV:  19    -0.125501728163E+03   -0.13138E-05   -0.70796E-08  7560   0.669E-04    0.950E-05
DAV:  20    -0.125501728311E+03   -0.14773E-06   -0.69031E-09  8376   0.262E-04
   1 F= -.12710348E+03 E0= -.12710271E+03  d E =-.127103E+03
 curvature:   0.00 expect dE= 0.000E+00 dE for cont linesearch  0.000E+00
 trial: gam= 0.00000 g(F)=  0.285E-01 g(S)=  0.000E+00 ort = 0.000E+00 (trialstep = 0.100E+01)
 search vector abs. value=  0.285E-01
 bond charge predicted
       N       E                     dE             d eps       ncg     rms          rms(c)
DAV:   1    -0.125507428572E+03   -0.57004E-02   -0.28665E+00  7104   0.576E+00    0.470E-01
DAV:   2    -0.125501287124E+03    0.61414E-02   -0.57859E-02 10248   0.820E-01    0.229E-01
DAV:   3    -0.125500192594E+03    0.10945E-02   -0.67741E-03  9432   0.278E-01    0.898E-02
DAV:   4    -0.125500139919E+03    0.52675E-04   -0.91016E-04 10632   0.962E-02    0.381E-02
DAV:   5    -0.125500139829E+03    0.89824E-07   -0.77143E-05 10200   0.317E-02    0.893E-03
DAV:   6    -0.125500138455E+03    0.13748E-05   -0.15188E-05  9888   0.132E-02    0.449E-03
DAV:   7    -0.125500139117E+03   -0.66206E-06   -0.10901E-06 10656   0.329E-03
   2 F= -.12710135E+03 E0= -.12710058E+03  d E =0.213238E-02
 trial-energy change:    0.002132  1 .order    0.002053   -0.028532    0.032637
 step:   0.4645(harm=  0.4664)  dis= 0.00655  next Energy=  -127.110102 (dE=-0.662E-02)
 bond charge predicted
       N       E                     dE             d eps       ncg     rms          rms(c)
DAV:   1    -0.125510722102E+03   -0.10584E-01   -0.82251E-01  7104   0.309E+00    0.252E-01
DAV:   2    -0.125508920259E+03    0.18018E-02   -0.16509E-02 10248   0.438E-01    0.122E-01
DAV:   3    -0.125508611543E+03    0.30872E-03   -0.18652E-03  9816   0.147E-01    0.496E-02
DAV:   4    -0.125508599215E+03    0.12327E-04   -0.26018E-04  9984   0.509E-02    0.206E-02
DAV:   5    -0.125508599389E+03   -0.17366E-06   -0.21414E-05  9504   0.168E-02    0.491E-03
DAV:   6    -0.125508598729E+03    0.65999E-06   -0.45268E-06 10464   0.728E-03
   3 F= -.12711010E+03 E0= -.12710933E+03  d E =-.661672E-02
 curvature:  -0.23 expect dE=-0.141E-02 dE for cont linesearch -0.564E-08
 trial: gam= 0.21128 g(F)=  0.605E-02 g(S)=  0.000E+00 ort = 0.263E-04 (trialstep = 0.893E+00)
 search vector abs. value=  0.734E-02
 bond charge predicted
       N       E                     dE             d eps       ncg     rms          rms(c)
DAV:   1    -0.125512906883E+03   -0.43075E-02   -0.23427E-01  7104   0.188E+00    0.108E-01
DAV:   2    -0.125512975796E+03   -0.68913E-04   -0.24023E-03  9984   0.210E-01    0.630E-02
DAV:   3    -0.125512964137E+03    0.11659E-04   -0.24477E-04  9720   0.670E-02    0.216E-02
DAV:   4    -0.125512963810E+03    0.32669E-06   -0.45925E-05 10416   0.260E-02    0.100E-02
DAV:   5    -0.125512964887E+03   -0.10769E-05   -0.35715E-06 10632   0.772E-03    0.336E-03
DAV:   6    -0.125512964993E+03   -0.10533E-06   -0.55149E-07  7824   0.321E-03
   4 F= -.12711439E+03 E0= -.12711362E+03  d E =-.428746E-02
 trial-energy change:   -0.004287  1 .order   -0.004292   -0.005411   -0.003174
 step:   2.1596(harm=  2.1596)  dis= 0.01129  next Energy=  -127.116644 (dE=-0.654E-02)
 bond charge predicted
       N       E                     dE             d eps       ncg     rms          rms(c)
DAV:   1    -0.125515282061E+03   -0.23172E-02   -0.47264E-01  7104   0.267E+00    0.153E-01
DAV:   2    -0.125515429317E+03   -0.14726E-03   -0.48579E-03 10152   0.298E-01    0.892E-02
DAV:   3    -0.125515405059E+03    0.24259E-04   -0.49475E-04  9432   0.953E-02    0.304E-02
DAV:   4    -0.125515404084E+03    0.97450E-06   -0.93100E-05 10320   0.371E-02    0.142E-02
DAV:   5    -0.125515406140E+03   -0.20557E-05   -0.72241E-06 10944   0.110E-02    0.481E-03
DAV:   6    -0.125515406219E+03   -0.79607E-07   -0.11467E-06  9192   0.451E-03
   5 F= -.12711669E+03 E0= -.12711592E+03  d E =-.659328E-02
 curvature:  -1.31 expect dE=-0.368E-01 dE for cont linesearch -0.212E-05
 trial: gam= 4.63724 g(F)=  0.281E-01 g(S)=  0.000E+00 ort = 0.109E-03 (trialstep = 0.450E-01)
 search vector abs. value=  0.187E+00
 bond charge predicted
       N       E                     dE             d eps       ncg     rms          rms(c)
DAV:   1    -0.125516658319E+03   -0.12522E-02   -0.14511E-02  7176   0.442E-01    0.259E-02
DAV:   2    -0.125516663978E+03   -0.56590E-05   -0.13398E-04 10128   0.473E-02    0.154E-02
DAV:   3    -0.125516663339E+03    0.63870E-06   -0.11989E-05  9120   0.153E-02    0.433E-03
DAV:   4    -0.125516663511E+03   -0.17120E-06   -0.23264E-06  9744   0.608E-03
   6 F= -.12711793E+03 E0= -.12711716E+03  d E =-.124020E-02
 ZBRENT: can't locate minimum, use default step
 trial-energy change:   -0.001240  1 .order   -0.001240   -0.001288   -0.001193
 step:   0.1800(harm=  0.6103)  dis= 0.00436  next Energy=  -127.125424 (dE=-0.873E-02)
 bond charge predicted
       N       E                     dE             d eps       ncg     rms          rms(c)
DAV:   1    -0.125519827021E+03   -0.31637E-02   -0.13071E-01  7104   0.133E+00    0.777E-02
DAV:   2    -0.125519880276E+03   -0.53256E-04   -0.12056E-03  9672   0.143E-01    0.463E-02
DAV:   3    -0.125519873943E+03    0.63339E-05   -0.10558E-04  9120   0.452E-02    0.131E-02
DAV:   4    -0.125519874011E+03   -0.68225E-07   -0.20018E-05 10224   0.178E-02    0.574E-03
DAV:   5    -0.125519874404E+03   -0.39327E-06   -0.15190E-06  9072   0.517E-03
   7 F= -.12712109E+03 E0= -.12712032E+03  d E =-.439740E-02
 curvature:  -0.84 expect dE=-0.116E-01 dE for cont linesearch -0.184E-02
 ZBRENT: increasing intervall
 opt :   0.4500  next Energy=  -127.124885 (dE=-0.819E-02)
 bond charge predicted
       N       E                     dE             d eps       ncg     rms          rms(c)
DAV:   1    -0.125523636450E+03   -0.37624E-02   -0.52449E-01  7104   0.266E+00    0.155E-01
DAV:   2    -0.125523855072E+03   -0.21862E-03   -0.49152E-03  9960   0.287E-01    0.924E-02
DAV:   3    -0.125523827678E+03    0.27394E-04   -0.42285E-04  9552   0.905E-02    0.265E-02
DAV:   4    -0.125523827755E+03   -0.77082E-07   -0.78696E-05 10392   0.352E-02    0.115E-02
DAV:   5    -0.125523829126E+03   -0.13709E-05   -0.61962E-06 11568   0.100E-02    0.457E-03
DAV:   6    -0.125523829039E+03    0.87060E-07   -0.93498E-07  7776   0.419E-03
   8 F= -.12712493E+03 E0= -.12712415E+03  d E =-.823365E-02
 curvature:  -1.73 expect dE=-0.107E-01 dE for cont linesearch -0.617E-03
 ZBRENT: increasing intervall
 opt :   0.9900  next Energy=  -127.122810 (dE=-0.612E-02)
 bond charge predicted
       N       E                     dE             d eps       ncg     rms          rms(c)
DAV:   1    -0.125521326950E+03    0.25022E-02   -0.21059E+00  7104   0.530E+00    0.310E-01
DAV:   2    -0.125522265581E+03   -0.93863E-03   -0.20552E-02 10152   0.584E-01    0.184E-01
DAV:   3    -0.125522152602E+03    0.11298E-03   -0.16847E-03 10368   0.180E-01    0.544E-02
DAV:   4    -0.125522155287E+03   -0.26854E-05   -0.29979E-04 10440   0.685E-02    0.228E-02
DAV:   5    -0.125522161669E+03   -0.63811E-05   -0.22818E-05 11544   0.191E-02    0.893E-03
DAV:   6    -0.125522161043E+03    0.62526E-06   -0.34622E-06  9816   0.783E-03
   9 F= -.12712298E+03 E0= -.12712220E+03  d E =-.628537E-02
 curvature:   5.92 expect dE= 0.246E+00 dE for cont linesearch  0.739E-02
 ZBRENT: bracketing found
 ZBRENT: interpolating
 opt :   0.6383  next Energy=  -127.125697 (dE=-0.900E-02)
 bond charge predicted
       N       E                     dE             d eps       ncg     rms          rms(c)
DAV:   1    -0.125524347673E+03   -0.21860E-02   -0.89316E-01  7104   0.345E+00    0.201E-01
DAV:   2    -0.125524724652E+03   -0.37698E-03   -0.86100E-03 10464   0.378E-01    0.120E-01
DAV:   3    -0.125524676900E+03    0.47752E-04   -0.71047E-04  8952   0.118E-01    0.353E-02
DAV:   4    -0.125524679174E+03   -0.22741E-05   -0.13328E-04  9936   0.455E-02    0.149E-02
DAV:   5    -0.125524682400E+03   -0.32261E-05   -0.95878E-06 10152   0.123E-02    0.578E-03
DAV:   6    -0.125524682482E+03   -0.82189E-07   -0.11688E-06  8448   0.460E-03
  10 F= -.12712569E+03 E0= -.12712492E+03  d E =-.899589E-02
 curvature:  -0.62 expect dE=-0.656E-02 dE for cont linesearch -0.146E-07
 trial: gam= 0.50650 g(F)=  0.106E-01 g(S)=  0.000E+00 ort =-0.665E-04 (trialstep = 0.164E+00)
 search vector abs. value=  0.585E-01
 bond charge predicted
       N       E                     dE             d eps       ncg     rms          rms(c)
DAV:   1    -0.125526393935E+03   -0.17115E-02   -0.61995E-02  7104   0.837E-01    0.485E-02
DAV:   2    -0.125526416676E+03   -0.22741E-04   -0.46670E-04  9336   0.791E-02    0.297E-02
DAV:   3    -0.125526414198E+03    0.24785E-05   -0.33177E-05  8040   0.236E-02    0.595E-03
DAV:   4    -0.125526414573E+03   -0.37561E-06   -0.51713E-06  9480   0.864E-03
  11 F= -.12712733E+03 E0= -.12712655E+03  d E =-.163777E-02
 ZBRENT: can't locate minimum, use default step
 trial-energy change:   -0.001638  1 .order   -0.001638   -0.001737   -0.001538
 step:   0.6546(harm=  1.4254)  dis= 0.00528  next Energy=  -127.133255 (dE=-0.757E-02)
 bond charge predicted
       N       E                     dE             d eps       ncg     rms          rms(c)
DAV:   1    -0.125530269506E+03   -0.38553E-02   -0.55902E-01  7104   0.251E+00    0.145E-01
DAV:   2    -0.125530490380E+03   -0.22087E-03   -0.41830E-03 10656   0.237E-01    0.890E-02
DAV:   3    -0.125530460295E+03    0.30085E-04   -0.30516E-04  8952   0.715E-02    0.170E-02
DAV:   4    -0.125530461413E+03   -0.11181E-05   -0.47030E-05  9528   0.263E-02    0.881E-03
DAV:   5    -0.125530459786E+03    0.16263E-05   -0.45746E-06  9984   0.899E-03    0.375E-03
DAV:   6    -0.125530458652E+03    0.11349E-05   -0.14381E-06  8616   0.489E-03    0.123E-03
DAV:   7    -0.125530458482E+03    0.16912E-06   -0.68482E-07  7944   0.323E-03
  12 F= -.12713109E+03 E0= -.12713031E+03  d E =-.539932E-02
 curvature:  -2.46 expect dE=-0.126E-01 dE for cont linesearch -0.153E-02
 ZBRENT: increasing intervall
 opt :   1.6365  next Energy=  -127.133686 (dE=-0.800E-02)
 bond charge predicted
       N       E                     dE             d eps       ncg     rms          rms(c)
DAV:   1    -0.125533185737E+03   -0.27271E-02   -0.22374E+00  7104   0.502E+00    0.285E-01
DAV:   2    -0.125534157124E+03   -0.97139E-03   -0.16761E-02 10512   0.473E-01    0.176E-01
DAV:   3    -0.125534043481E+03    0.11364E-03   -0.11857E-03  9216   0.142E-01    0.310E-02
DAV:   4    -0.125534048730E+03   -0.52499E-05   -0.17491E-04  9912   0.513E-02    0.165E-02
DAV:   5    -0.125534043715E+03    0.50153E-05   -0.16718E-05 11064   0.175E-02    0.693E-03
DAV:   6    -0.125534040758E+03    0.29572E-05   -0.49415E-06 10152   0.919E-03    0.229E-03
DAV:   7    -0.125534040668E+03    0.89549E-07   -0.19320E-06 10008   0.541E-03
  13 F= -.12713411E+03 E0= -.12713333E+03  d E =-.842067E-02
 curvature:  -4.19 expect dE=-0.603E-01 dE for cont linesearch -0.106E-04
 trial: gam= 1.48772 g(F)=  0.144E-01 g(S)=  0.000E+00 ort = 0.385E-03 (trialstep = 0.185E+00)
 search vector abs. value=  0.145E+00
 bond charge predicted
       N       E                     dE             d eps       ncg     rms          rms(c)
DAV:   1    -0.125536162048E+03   -0.21213E-02   -0.22323E-01  7104   0.182E+00    0.947E-02
DAV:   2    -0.125536244293E+03   -0.82245E-04   -0.20481E-03 10152   0.191E-01    0.589E-02
DAV:   3    -0.125536212374E+03    0.31919E-04   -0.19773E-04  9576   0.629E-02    0.134E-02
DAV:   4    -0.125536213820E+03   -0.14464E-05   -0.32527E-05 10080   0.230E-02    0.771E-03
DAV:   5    -0.125536214281E+03   -0.46103E-06   -0.27150E-06 10080   0.671E-03
  14 F= -.12713611E+03 E0= -.12713533E+03  d E =-.199637E-02
 trial-energy change:   -0.001996  1 .order   -0.001998   -0.002765   -0.001231
 step:   0.3332(harm=  0.3332)  dis= 0.00396  next Energy=  -127.136601 (dE=-0.249E-02)
 bond charge predicted
       N       E                     dE             d eps       ncg     rms          rms(c)
DAV:   1    -0.125536826149E+03   -0.61233E-03   -0.14384E-01  7104   0.146E+00    0.759E-02
DAV:   2    -0.125536880714E+03   -0.54565E-04   -0.13172E-03 10128   0.153E-01    0.473E-02
DAV:   3    -0.125536860619E+03    0.20095E-04   -0.12706E-04  9912   0.504E-02    0.107E-02
DAV:   4    -0.125536861408E+03   -0.78913E-06   -0.20773E-05 10176   0.184E-02    0.618E-03
DAV:   5    -0.125536861616E+03   -0.20828E-06   -0.17540E-06  9696   0.548E-03
  15 F= -.12713661E+03 E0= -.12713583E+03  d E =-.249711E-02
 curvature:  -1.62 expect dE=-0.184E-02 dE for cont linesearch -0.121E-06
 trial: gam= 0.20203 g(F)=  0.114E-02 g(S)=  0.000E+00 ort = 0.104E-03 (trialstep = 0.215E+00)
 search vector abs. value=  0.710E-02
 bond charge predicted
       N       E                     dE             d eps       ncg     rms          rms(c)
DAV:   1    -0.125537127491E+03   -0.26608E-03   -0.14507E-02  7248   0.469E-01    0.242E-02
DAV:   2    -0.125537132295E+03   -0.48039E-05   -0.13460E-04 10104   0.477E-02    0.147E-02
DAV:   3    -0.125537132037E+03    0.25800E-06   -0.10872E-05  9792   0.144E-02    0.441E-03
DAV:   4    -0.125537132461E+03   -0.42360E-06   -0.18557E-06  9360   0.551E-03
  16 F= -.12713681E+03 E0= -.12713603E+03  d E =-.203285E-03
 trial-energy change:   -0.000203  1 .order   -0.000203   -0.000249   -0.000156
 step:   0.5741(harm=  0.5741)  dis= 0.00170  next Energy=  -127.136941 (dE=-0.333E-03)
 bond charge predicted
       N       E                     dE             d eps       ncg     rms          rms(c)
DAV:   1    -0.125537366447E+03   -0.23441E-03   -0.40729E-02  7104   0.787E-01    0.405E-02
DAV:   2    -0.125537380219E+03   -0.13772E-04   -0.37668E-04 10320   0.799E-02    0.246E-02
DAV:   3    -0.125537378509E+03    0.17104E-05   -0.29720E-05  9720   0.238E-02    0.742E-03
DAV:   4    -0.125537378811E+03   -0.30214E-06   -0.50265E-06 10104   0.898E-03
  17 F= -.12713694E+03 E0= -.12713617E+03  d E =-.336015E-03
 curvature:  -1.76 expect dE=-0.170E-02 dE for cont linesearch -0.372E-07
 trial: gam= 0.85098 g(F)=  0.968E-03 g(S)=  0.000E+00 ort = 0.123E-04 (trialstep = 0.286E+00)
 search vector abs. value=  0.613E-02
 bond charge predicted
       N       E                     dE             d eps       ncg     rms          rms(c)
DAV:   1    -0.125537646606E+03   -0.26810E-03   -0.22476E-02  7104   0.607E-01    0.304E-02
DAV:   2    -0.125537657351E+03   -0.10745E-04   -0.23634E-04 10464   0.651E-02    0.186E-02
DAV:   3    -0.125537656855E+03    0.49587E-06   -0.18973E-05  9456   0.188E-02    0.624E-03
DAV:   4    -0.125537657129E+03   -0.27422E-06   -0.33862E-06  9816   0.720E-03
  18 F= -.12713713E+03 E0= -.12713635E+03  d E =-.183861E-03
 trial-energy change:   -0.000184  1 .order   -0.000182   -0.000280   -0.000085
 step:   0.4102(harm=  0.4102)  dis= 0.00126  next Energy=  -127.137144 (dE=-0.201E-03)
 bond charge predicted
       N       E                     dE             d eps       ncg     rms          rms(c)
DAV:   1    -0.125537714803E+03   -0.57948E-04   -0.41945E-03  7200   0.262E-01    0.132E-02
DAV:   2    -0.125537717002E+03   -0.21992E-05   -0.44608E-05 10128   0.283E-02    0.807E-03
DAV:   3    -0.125537717191E+03   -0.18877E-06   -0.35572E-06  8736   0.814E-03
  19 F= -.12713715E+03 E0= -.12713637E+03  d E =-.202782E-03
 curvature:  -1.29 expect dE=-0.534E-03 dE for cont linesearch -0.101E-07
 trial: gam= 0.44737 g(F)=  0.415E-03 g(S)=  0.000E+00 ort =-0.693E-05 (trialstep = 0.311E+00)
 search vector abs. value=  0.164E-02
 bond charge predicted
       N       E                     dE             d eps       ncg     rms          rms(c)
DAV:   1    -0.125537873558E+03   -0.15656E-03   -0.78156E-03  7152   0.354E-01    0.200E-02
DAV:   2    -0.125537876370E+03   -0.28122E-05   -0.10687E-04 10560   0.428E-02    0.120E-02
DAV:   3    -0.125537875208E+03    0.11620E-05   -0.87089E-06  8352   0.134E-02    0.344E-03
DAV:   4    -0.125537875496E+03   -0.28819E-06   -0.14304E-06 10080   0.465E-03
  20 F= -.12713724E+03 E0= -.12713646E+03  d E =-.903658E-04
 trial-energy change:   -0.000090  1 .order   -0.000089   -0.000128   -0.000051
 step:   0.5139(harm=  0.5139)  dis= 0.00105  next Energy=  -127.137252 (dE=-0.106E-03)
 bond charge predicted
       N       E                     dE             d eps       ncg     rms          rms(c)
DAV:   1    -0.125537935840E+03   -0.60632E-04   -0.33152E-03  7104   0.231E-01    0.127E-02
DAV:   2    -0.125537937150E+03   -0.13100E-05   -0.45414E-05 10464   0.278E-02    0.764E-03
DAV:   3    -0.125537936753E+03    0.39672E-06   -0.35074E-06  8976   0.847E-03
  21 F= -.12713725E+03 E0= -.12713647E+03  d E =-.107258E-03
 curvature:  -1.02 expect dE=-0.399E-03 dE for cont linesearch -0.583E-08
 trial: gam= 0.93865 g(F)=  0.391E-03 g(S)=  0.000E+00 ort =-0.306E-05 (trialstep = 0.315E+00)
 search vector abs. value=  0.183E-02
 bond charge predicted
       N       E                     dE             d eps       ncg     rms          rms(c)
DAV:   1    -0.125538118137E+03   -0.18099E-03   -0.85104E-03  7104   0.368E-01    0.183E-02
DAV:   2    -0.125538122944E+03   -0.48063E-05   -0.10078E-04 10272   0.406E-02    0.113E-02
DAV:   3    -0.125538122992E+03   -0.48976E-07   -0.72831E-06  8328   0.122E-02
  22 F= -.12713734E+03 E0= -.12713656E+03  d E =-.889593E-04
 trial-energy change:   -0.000089  1 .order   -0.000088   -0.000122   -0.000053
 step:   0.5535(harm=  0.5535)  dis= 0.00129  next Energy=  -127.137361 (dE=-0.108E-03)
 bond charge predicted
       N       E                     dE             d eps       ncg     rms          rms(c)
DAV:   1    -0.125538216235E+03   -0.93291E-04   -0.48994E-03  7104   0.280E-01    0.146E-02
DAV:   2    -0.125538219311E+03   -0.30764E-05   -0.57603E-05 10512   0.309E-02    0.893E-03
DAV:   3    -0.125538219556E+03   -0.24488E-06   -0.42020E-06  8760   0.932E-03
  23 F= -.12713736E+03 E0= -.12713659E+03  d E =-.111665E-03
 curvature:  -1.30 expect dE=-0.355E-03 dE for cont linesearch -0.347E-07
 trial: gam= 0.68630 g(F)=  0.273E-03 g(S)=  0.000E+00 ort = 0.697E-05 (trialstep = 0.363E+00)
 search vector abs. value=  0.114E-02
 bond charge predicted
       N       E                     dE             d eps       ncg     rms          rms(c)
DAV:   1    -0.125538400789E+03   -0.18148E-03   -0.75769E-03  7104   0.352E-01    0.189E-02
DAV:   2    -0.125538404135E+03   -0.33466E-05   -0.10297E-04  9984   0.413E-02    0.115E-02
DAV:   3    -0.125538403390E+03    0.74553E-06   -0.68581E-06  9072   0.120E-02
  24 F= -.12713743E+03 E0= -.12713665E+03  d E =-.621843E-04
 trial-energy change:   -0.000062  1 .order   -0.000061   -0.000101   -0.000022
 step:   0.4630(harm=  0.4630)  dis= 0.00069  next Energy=  -127.137429 (dE=-0.643E-04)
 bond charge predicted
       N       E                     dE             d eps       ncg     rms          rms(c)
DAV:   1    -0.125538440415E+03   -0.36280E-04   -0.58156E-04  7152   0.979E-02    0.591E-03
DAV:   2    -0.125538440770E+03   -0.35530E-06   -0.75550E-06 10560   0.113E-02
  25 F= -.12713743E+03 E0= -.12713665E+03  d E =-.659083E-04
 curvature:  -0.95 expect dE=-0.179E-03 dE for cont linesearch -0.681E-07
 trial: gam= 0.70571 g(F)=  0.187E-03 g(S)=  0.000E+00 ort = 0.904E-05 (trialstep = 0.383E+00)
 search vector abs. value=  0.770E-03
 bond charge predicted
       N       E                     dE             d eps       ncg     rms          rms(c)
DAV:   1    -0.125538620216E+03   -0.17980E-03   -0.58531E-03  7104   0.310E-01    0.171E-02
DAV:   2    -0.125538622458E+03   -0.22422E-05   -0.83226E-05  9264   0.377E-02    0.103E-02
DAV:   3    -0.125538621838E+03    0.61989E-06   -0.61566E-06 10056   0.113E-02
  26 F= -.12713748E+03 E0= -.12713670E+03  d E =-.473033E-04
 trial-energy change:   -0.000047  1 .order   -0.000047   -0.000074   -0.000019
 step:   0.5139(harm=  0.5139)  dis= 0.00035  next Energy=  -127.137481 (dE=-0.498E-04)
 bond charge predicted
       N       E                     dE             d eps       ncg     rms          rms(c)
DAV:   1    -0.125538671416E+03   -0.48958E-04   -0.69382E-04  7104   0.107E-01    0.651E-03
DAV:   2    -0.125538671745E+03   -0.32911E-06   -0.96631E-06  9648   0.129E-02
  27 F= -.12713748E+03 E0= -.12713670E+03  d E =-.513550E-04
 curvature:  -1.02 expect dE=-0.162E-03 dE for cont linesearch -0.124E-06
 trial: gam= 0.83524 g(F)=  0.159E-03 g(S)=  0.000E+00 ort = 0.967E-05 (trialstep = 0.409E+00)
 search vector abs. value=  0.712E-03
 bond charge predicted
       N       E                     dE             d eps       ncg     rms          rms(c)
DAV:   1    -0.125538876619E+03   -0.20520E-03   -0.59111E-03  7104   0.308E-01    0.157E-02
DAV:   2    -0.125538879801E+03   -0.31819E-05   -0.73166E-05  9240   0.353E-02    0.975E-03
DAV:   3    -0.125538879696E+03    0.10560E-06   -0.50151E-06 10176   0.103E-02
  28 F= -.12713753E+03 E0= -.12713676E+03  d E =-.527464E-04
 trial-energy change:   -0.000053  1 .order   -0.000053   -0.000068   -0.000037
 step:   0.8872(harm=  0.8872)  dis= 0.00087  next Energy=  -127.137556 (dE=-0.741E-04)
 bond charge predicted
       N       E                     dE             d eps       ncg     rms          rms(c)
DAV:   1    -0.125539079987E+03   -0.20019E-03   -0.81359E-03  7104   0.361E-01    0.182E-02
DAV:   2    -0.125539084904E+03   -0.49170E-05   -0.99695E-05 10128   0.412E-02    0.114E-02
DAV:   3    -0.125539084624E+03    0.27991E-06   -0.63458E-06 10056   0.117E-02
  29 F= -.12713756E+03 E0= -.12713678E+03  d E =-.760970E-04
 curvature:  -1.89 expect dE=-0.455E-03 dE for cont linesearch -0.772E-07
 trial: gam= 1.52893 g(F)=  0.241E-03 g(S)=  0.000E+00 ort = 0.539E-05 (trialstep = 0.187E+00)
 search vector abs. value=  0.192E-02
 bond charge predicted
       N       E                     dE             d eps       ncg     rms          rms(c)
DAV:   1    -0.125539242956E+03   -0.15805E-03   -0.34236E-03  7104   0.232E-01    0.124E-02
DAV:   2    -0.125539244895E+03   -0.19389E-05   -0.45483E-05  9768   0.275E-02    0.785E-03
DAV:   3    -0.125539244583E+03    0.31131E-06   -0.28397E-06  9648   0.787E-03
  30 F= -.12713760E+03 E0= -.12713682E+03  d E =-.371261E-04
 trial-energy change:   -0.000037  1 .order   -0.000037   -0.000047   -0.000026
 step:   0.4334(harm=  0.4334)  dis= 0.00060  next Energy=  -127.137612 (dE=-0.540E-04)
 bond charge predicted
       N       E                     dE             d eps       ncg     rms          rms(c)
DAV:   1    -0.125539421632E+03   -0.17674E-03   -0.59360E-03  7104   0.306E-01    0.160E-02
DAV:   2    -0.125539425005E+03   -0.33735E-05   -0.78364E-05 10008   0.362E-02    0.100E-02
DAV:   3    -0.125539424360E+03    0.64526E-06   -0.47139E-06  9624   0.102E-02
  31 F= -.12713761E+03 E0= -.12713683E+03  d E =-.550640E-04
 curvature:  -1.67 expect dE=-0.271E-03 dE for cont linesearch -0.373E-08
 trial: gam= 0.72730 g(F)=  0.162E-03 g(S)=  0.000E+00 ort =-0.207E-05 (trialstep = 0.236E+00)
 search vector abs. value=  0.118E-02
 bond charge predicted
       N       E                     dE             d eps       ncg     rms          rms(c)
DAV:   1    -0.125539588806E+03   -0.16380E-03   -0.31833E-03  7104   0.220E-01    0.115E-02
DAV:   2    -0.125539590831E+03   -0.20246E-05   -0.39085E-05  9000   0.259E-02    0.723E-03
DAV:   3    -0.125539590775E+03    0.55536E-07   -0.25385E-06  9000   0.718E-03
  32 F= -.12713765E+03 E0= -.12713687E+03  d E =-.326041E-04
 trial-energy change:   -0.000033  1 .order   -0.000032   -0.000038   -0.000026
 step:   0.7487(harm=  0.7487)  dis= 0.00084  next Energy=  -127.137674 (dE=-0.602E-04)
 bond charge predicted
       N       E                     dE             d eps       ncg     rms          rms(c)
DAV:   1    -0.125539901969E+03   -0.31114E-03   -0.14945E-02  7104   0.477E-01    0.244E-02
DAV:   2    -0.125539911502E+03   -0.95322E-05   -0.18345E-04  9888   0.561E-02    0.153E-02
DAV:   3    -0.125539910928E+03    0.57379E-06   -0.11458E-05 10080   0.152E-02    0.475E-03
DAV:   4    -0.125539911152E+03   -0.22410E-06   -0.25874E-06  9336   0.585E-03
  33 F= -.12713768E+03 E0= -.12713690E+03  d E =-.625280E-04
 curvature:  -2.74 expect dE=-0.725E-03 dE for cont linesearch -0.363E-07
 trial: gam= 1.56271 g(F)=  0.265E-03 g(S)=  0.000E+00 ort = 0.395E-05 (trialstep = 0.127E+00)
 search vector abs. value=  0.315E-02
 bond charge predicted
       N       E                     dE             d eps       ncg     rms          rms(c)
DAV:   1    -0.125540063088E+03   -0.15216E-03   -0.25373E-03  7104   0.197E-01    0.977E-03
DAV:   2    -0.125540064571E+03   -0.14836E-05   -0.29992E-05  9048   0.225E-02    0.609E-03
DAV:   3    -0.125540064537E+03    0.34644E-07   -0.15351E-06  9072   0.566E-03
  34 F= -.12713771E+03 E0= -.12713693E+03  d E =-.311883E-04
 ZBRENT: can't locate minimum, use default step
 trial-energy change:   -0.000031  1 .order   -0.000031   -0.000034   -0.000028
 step:   0.5061(harm=  0.6740)  dis= 0.00124  next Energy=  -127.137767 (dE=-0.912E-04)
 bond charge predicted
       N       E                     dE             d eps       ncg     rms          rms(c)
DAV:   1    -0.125540476029E+03   -0.41146E-03   -0.22804E-02  7104   0.589E-01    0.297E-02
DAV:   2    -0.125540488597E+03   -0.12568E-04   -0.26708E-04  9240   0.673E-02    0.184E-02
DAV:   3    -0.125540487542E+03    0.10545E-05   -0.14094E-05 10320   0.172E-02    0.615E-03
DAV:   4    -0.125540488181E+03   -0.63914E-06   -0.31328E-06  8400   0.627E-03
  35 F= -.12713776E+03 E0= -.12713699E+03  d E =-.883180E-04
 curvature:  -3.55 expect dE=-0.526E-03 dE for cont linesearch -0.639E-05
 ZBRENT: increasing intervall
 opt :   1.2651  next Energy=  -127.137712 (dE=-0.356E-04)
 bond charge predicted
       N       E                     dE             d eps       ncg     rms          rms(c)
DAV:   1    -0.125541119508E+03   -0.63197E-03   -0.91238E-02  7104   0.118E+00    0.588E-02
DAV:   2    -0.125541173041E+03   -0.53533E-04   -0.10780E-03  9360   0.135E-01    0.364E-02
DAV:   3    -0.125541166285E+03    0.67559E-05   -0.56209E-05 10536   0.342E-02    0.123E-02
DAV:   4    -0.125541168239E+03   -0.19540E-05   -0.12401E-05  9144   0.124E-02    0.421E-03
DAV:   5    -0.125541168499E+03   -0.26061E-06   -0.82096E-07  8472   0.376E-03
  36 F= -.12713771E+03 E0= -.12713693E+03  d E =-.359810E-04
 curvature:  29.30 expect dE= 0.309E-01 dE for cont linesearch  0.429E-03
 ZBRENT: bracketing found
 ZBRENT: interpolating
 opt :   0.7030  next Energy=  -127.137772 (dE=-0.957E-04)
 bond charge predicted
       N       E                     dE             d eps       ncg     rms          rms(c)
DAV:   1    -0.125540659947E+03    0.50829E-03   -0.49954E-02  7104   0.872E-01    0.434E-02
DAV:   2    -0.125540688715E+03   -0.28768E-04   -0.58597E-04  9648   0.996E-02    0.269E-02
DAV:   3    -0.125540686174E+03    0.25410E-05   -0.30607E-05 10104   0.253E-02    0.892E-03
DAV:   4    -0.125540687377E+03   -0.12036E-05   -0.67324E-06  7560   0.907E-03    0.304E-03
DAV:   5    -0.125540687655E+03   -0.27749E-06   -0.40438E-07  7896   0.261E-03
  37 F= -.12713777E+03 E0= -.12713699E+03  d E =-.976173E-04
 curvature:  -0.51 expect dE=-0.131E-03 dE for cont linesearch -0.409E-09
 trial: gam= 1.04056 g(F)=  0.259E-03 g(S)=  0.000E+00 ort = 0.159E-05 (trialstep = 0.207E+00)
 search vector abs. value=  0.367E-02
 bond charge predicted
       N       E                     dE             d eps       ncg     rms          rms(c)
DAV:   1    -0.125540946430E+03   -0.25905E-03   -0.83605E-03  7104   0.360E-01    0.169E-02
DAV:   2    -0.125540950810E+03   -0.43794E-05   -0.10153E-04  9696   0.412E-02    0.110E-02
DAV:   3    -0.125540950506E+03    0.30358E-06   -0.59779E-06  7872   0.115E-02
  38 F= -.12713782E+03 E0= -.12713704E+03  d E =-.421217E-04
 trial-energy change:   -0.000042  1 .order   -0.000041   -0.000054   -0.000029
 step:   0.4383(harm=  0.4383)  dis= 0.00108  next Energy=  -127.137831 (dE=-0.572E-04)
 bond charge predicted
       N       E                     dE             d eps       ncg     rms          rms(c)
DAV:   1    -0.125541210470E+03   -0.25966E-03   -0.10426E-02  7104   0.403E-01    0.196E-02
DAV:   2    -0.125541216406E+03   -0.59351E-05   -0.12447E-04  8736   0.457E-02    0.127E-02
DAV:   3    -0.125541216215E+03    0.19054E-06   -0.75133E-06  9912   0.129E-02
  39 F= -.12713784E+03 E0= -.12713706E+03  d E =-.620448E-04
 curvature:  -3.08 expect dE=-0.616E-03 dE for cont linesearch -0.114E-06
 trial: gam= 0.67742 g(F)=  0.200E-03 g(S)=  0.000E+00 ort = 0.116E-04 (trialstep = 0.254E+00)
 search vector abs. value=  0.190E-02
 bond charge predicted
       N       E                     dE             d eps       ncg     rms          rms(c)
DAV:   1    -0.125541449422E+03   -0.23302E-03   -0.67773E-03  7104   0.328E-01    0.159E-02
DAV:   2    -0.125541453240E+03   -0.38175E-05   -0.84291E-05  8400   0.375E-02    0.101E-02
DAV:   3    -0.125541453329E+03   -0.89474E-07   -0.50301E-06 10152   0.102E-02
  40 F= -.12713788E+03 E0= -.12713710E+03  d E =-.438068E-04
 trial-energy change:   -0.000044  1 .order   -0.000042   -0.000053   -0.000031
 step:   0.6210(harm=  0.6210)  dis= 0.00103  next Energy=  -127.137900 (dE=-0.646E-04)
 bond charge predicted
       N       E                     dE             d eps       ncg     rms          rms(c)
DAV:   1    -0.125541750116E+03   -0.29688E-03   -0.14186E-02  7104   0.475E-01    0.230E-02
DAV:   2    -0.125541757997E+03   -0.78809E-05   -0.17779E-04  9240   0.545E-02    0.146E-02
DAV:   3    -0.125541757696E+03    0.30100E-06   -0.10637E-05 10224   0.149E-02    0.521E-03
DAV:   4    -0.125541758201E+03   -0.50557E-06   -0.22972E-06  8184   0.540E-03
  41 F= -.12713790E+03 E0= -.12713712E+03  d E =-.685341E-04
 curvature:  -2.84 expect dE=-0.420E-03 dE for cont linesearch -0.114E-07
 trial: gam= 0.88623 g(F)=  0.148E-03 g(S)=  0.000E+00 ort = 0.276E-05 (trialstep = 0.327E+00)
 search vector abs. value=  0.165E-02
 bond charge predicted
       N       E                     dE             d eps       ncg     rms          rms(c)
DAV:   1    -0.125542026782E+03   -0.26909E-03   -0.10186E-02  7104   0.405E-01    0.188E-02
DAV:   2    -0.125542032208E+03   -0.54267E-05   -0.13116E-04  8880   0.465E-02    0.122E-02
DAV:   3    -0.125542031589E+03    0.61914E-06   -0.79837E-06  9960   0.132E-02
  42 F= -.12713793E+03 E0= -.12713716E+03  d E =-.305264E-04
 trial-energy change:   -0.000031  1 .order   -0.000029   -0.000049   -0.000009
 step:   0.3968(harm=  0.3968)  dis= 0.00058  next Energy=  -127.137934 (dE=-0.299E-04)
 bond charge predicted
       N       E                     dE             d eps       ncg     rms          rms(c)
DAV:   1    -0.125542085004E+03   -0.52796E-04   -0.47425E-04  7128   0.877E-02    0.490E-03
DAV:   2    -0.125542085310E+03   -0.30560E-06   -0.55205E-06 10368   0.974E-03
  43 F= -.12713794E+03 E0= -.12713716E+03  d E =-.324456E-04
 curvature:  -2.17 expect dE=-0.153E-03 dE for cont linesearch -0.234E-06
 trial: gam= 0.37332 g(F)=  0.704E-04 g(S)=  0.000E+00 ort = 0.133E-04 (trialstep = 0.341E+00)
 search vector abs. value=  0.310E-03
 bond charge predicted
       N       E                     dE             d eps       ncg     rms          rms(c)
DAV:   1    -0.125542219302E+03   -0.13430E-03   -0.23510E-03  7104   0.203E-01    0.102E-02
DAV:   2    -0.125542220122E+03   -0.81939E-06   -0.33725E-05  7944   0.246E-02    0.625E-03
DAV:   3    -0.125542219963E+03    0.15850E-06   -0.25931E-06  8712   0.733E-03
  44 F= -.12713795E+03 E0= -.12713717E+03  d E =-.160763E-04
 trial-energy change:   -0.000016  1 .order   -0.000016   -0.000026   -0.000006
 step:   0.4467(harm=  0.4467)  dis= 0.00029  next Energy=  -127.137953 (dE=-0.168E-04)
 bond charge predicted
       N       E                     dE             d eps       ncg     rms          rms(c)
DAV:   1    -0.125542258038E+03   -0.37917E-04   -0.23133E-04  7128   0.636E-02    0.373E-03
DAV:   2    -0.125542258136E+03   -0.97957E-07   -0.31898E-06 10368   0.767E-03
  45 F= -.12713795E+03 E0= -.12713717E+03  d E =-.174585E-04
 curvature:  -0.92 expect dE=-0.391E-04 dE for cont linesearch -0.637E-07
 trial: gam= 0.62400 g(F)=  0.426E-04 g(S)=  0.000E+00 ort = 0.464E-05 (trialstep = 0.362E+00)
 search vector abs. value=  0.169E-03
 bond charge predicted
       N       E                     dE             d eps       ncg     rms          rms(c)
DAV:   1    -0.125542369300E+03   -0.11126E-03   -0.14648E-03  7104   0.160E-01    0.799E-03
DAV:   2    -0.125542369673E+03   -0.37240E-06   -0.19826E-05  7848   0.188E-02    0.495E-03
DAV:   3    -0.125542369642E+03    0.30776E-07   -0.15081E-06  6936   0.564E-03
  46 F= -.12713797E+03 E0= -.12713719E+03  d E =-.112559E-04
 trial-energy change:   -0.000011  1 .order   -0.000011   -0.000016   -0.000006
 step:   0.5741(harm=  0.5741)  dis= 0.00038  next Energy=  -127.137967 (dE=-0.131E-04)
 bond charge predicted
       N       E                     dE             d eps       ncg     rms          rms(c)
DAV:   1    -0.125542430460E+03   -0.60787E-04   -0.50972E-04  7104   0.944E-02    0.490E-03
DAV:   2    -0.125542430605E+03   -0.14551E-06   -0.67822E-06  9528   0.110E-02
  47 F= -.12713797E+03 E0= -.12713719E+03  d E =-.135420E-04
 curvature:  -1.07 expect dE=-0.369E-04 dE for cont linesearch -0.922E-07
 trial: gam= 0.78069 g(F)=  0.346E-04 g(S)=  0.000E+00 ort = 0.382E-05 (trialstep = 0.405E+00)
 search vector abs. value=  0.144E-03
 bond charge predicted
       N       E                     dE             d eps       ncg     rms          rms(c)
DAV:   1    -0.125542547348E+03   -0.11689E-03   -0.16153E-03  7104   0.166E-01    0.877E-03
DAV:   2    -0.125542547931E+03   -0.58302E-06   -0.24743E-05  8208   0.207E-02    0.565E-03
DAV:   3    -0.125542547782E+03    0.14936E-06   -0.18024E-06  8544   0.624E-03
  48 F= -.12713798E+03 E0= -.12713720E+03  d E =-.803507E-05
 trial-energy change:   -0.000008  1 .order   -0.000008   -0.000015   -0.000001
 step:   0.4197(harm=  0.4197)  dis= 0.00026  next Energy=  -127.137975 (dE=-0.789E-05)
 bond charge predicted
       N       E                     dE             d eps       ncg     rms          rms(c)
DAV:   1    -0.125542551994E+03   -0.40627E-05   -0.29886E-06  9288   0.721E-03    0.882E-04
DAV:   2    -0.125542552014E+03   -0.20638E-07   -0.46519E-08  8376   0.984E-04
  49 F= -.12713798E+03 E0= -.12713720E+03  d E =-.816344E-05
 curvature:  -0.80 expect dE=-0.147E-04 dE for cont linesearch -0.118E-07
 trial: gam= 0.56010 g(F)=  0.183E-04 g(S)=  0.000E+00 ort = 0.146E-05 (trialstep = 0.408E+00)
 search vector abs. value=  0.650E-04
 bond charge predicted
       N       E                     dE             d eps       ncg     rms          rms(c)
DAV:   1    -0.125542640470E+03   -0.88476E-04   -0.79008E-04  7104   0.116E-01    0.580E-03
DAV:   2    -0.125542640660E+03   -0.19009E-06   -0.13064E-05  7296   0.152E-02    0.368E-03
DAV:   3    -0.125542640598E+03    0.61471E-07   -0.97117E-07  5592   0.468E-03
  50 F= -.12713798E+03 E0= -.12713720E+03  d E =-.523094E-05
 trial-energy change:   -0.000005  1 .order   -0.000005   -0.000008   -0.000002
 step:   0.5930(harm=  0.5930)  dis= 0.00021  next Energy=  -127.137981 (dE=-0.566E-05)
 bond charge predicted
       N       E                     dE             d eps       ncg     rms          rms(c)
DAV:   1    -0.125542679276E+03   -0.38616E-04   -0.16611E-04  7104   0.532E-02    0.302E-03
DAV:   2    -0.125542679310E+03   -0.34141E-07   -0.26846E-06 10320   0.694E-03
  51 F= -.12713798E+03 E0= -.12713720E+03  d E =-.601673E-05
 curvature:  -1.01 expect dE=-0.188E-04 dE for cont linesearch -0.508E-07
 trial: gam= 0.94605 g(F)=  0.187E-04 g(S)=  0.000E+00 ort = 0.181E-05 (trialstep = 0.360E+00)
 search vector abs. value=  0.802E-04
 bond charge predicted
       N       E                     dE             d eps       ncg     rms          rms(c)
DAV:   1    -0.125542775911E+03   -0.96635E-04   -0.80347E-04  7104   0.117E-01    0.568E-03
DAV:   2    -0.125542776121E+03   -0.21031E-06   -0.11794E-05  7104   0.144E-02    0.378E-03
DAV:   3    -0.125542776110E+03    0.11094E-07   -0.89457E-07  5616   0.452E-03
  52 F= -.12713799E+03 E0= -.12713721E+03  d E =-.567737E-05
 trial-energy change:   -0.000006  1 .order   -0.000006   -0.000007   -0.000004
 step:   0.7473(harm=  0.7473)  dis= 0.00036  next Energy=  -127.137989 (dE=-0.761E-05)
 bond charge predicted
       N       E                     dE             d eps       ncg     rms          rms(c)
DAV:   1    -0.125542876317E+03   -0.10020E-03   -0.94550E-04  7104   0.126E-01    0.606E-03
DAV:   2    -0.125542876629E+03   -0.31165E-06   -0.13910E-05  7440   0.156E-02    0.404E-03
DAV:   3    -0.125542876602E+03    0.26618E-07   -0.10112E-06  6360   0.485E-03
  53 F= -.12713799E+03 E0= -.12713721E+03  d E =-.817368E-05
 curvature:  -1.47 expect dE=-0.452E-04 dE for cont linesearch -0.398E-07
 trial: gam= 1.63691 g(F)=  0.307E-04 g(S)=  0.000E+00 ort = 0.147E-05 (trialstep = 0.140E+00)
 search vector abs. value=  0.251E-03
 bond charge predicted
       N       E                     dE             d eps       ncg     rms          rms(c)
DAV:   1    -0.125542945677E+03   -0.69048E-04   -0.40326E-04  7104   0.821E-02    0.394E-03
DAV:   2    -0.125542945805E+03   -0.12783E-06   -0.60126E-06  7248   0.102E-02
  54 F= -.12713799E+03 E0= -.12713721E+03  d E =-.434994E-05
 ZBRENT: can't locate minimum, use default step
 trial-energy change:   -0.000004  1 .order   -0.000004   -0.000005   -0.000004
 step:   0.5604(harm=  0.8627)  dis= 0.00054  next Energy=  -127.138004 (dE=-0.143E-04)
 bond charge predicted
       N       E                     dE             d eps       ncg     rms          rms(c)
DAV:   1    -0.125543145568E+03   -0.19989E-03   -0.35476E-03  7104   0.244E-01    0.116E-02
DAV:   2    -0.125543146618E+03   -0.10503E-05   -0.51374E-05  7344   0.299E-02    0.768E-03
DAV:   3    -0.125543146362E+03    0.25635E-06   -0.37479E-06 10128   0.900E-03
  55 F= -.12713800E+03 E0= -.12713722E+03  d E =-.103801E-04
 curvature:  -2.69 expect dE=-0.588E-04 dE for cont linesearch -0.117E-07
 trial: gam= 0.85048 g(F)=  0.219E-04 g(S)=  0.000E+00 ort =-0.104E-05 (trialstep = 0.224E+00)
 search vector abs. value=  0.201E-03
 bond charge predicted
       N       E                     dE             d eps       ncg     rms          rms(c)
DAV:   1    -0.125543245765E+03   -0.99147E-04   -0.88574E-04  7104   0.121E-01    0.583E-03
DAV:   2    -0.125543245957E+03   -0.19245E-06   -0.11731E-05  7200   0.145E-02    0.391E-03
DAV:   3    -0.125543246032E+03   -0.74767E-07   -0.97504E-07  5664   0.474E-03
  56 F= -.12713801E+03 E0= -.12713723E+03  d E =-.485683E-05
 trial-energy change:   -0.000005  1 .order   -0.000004   -0.000005   -0.000004
 step:   0.8904(harm=  0.8904)  dis= 0.00072  next Energy=  -127.138010 (dE=-0.934E-05)
 bond charge predicted
       N       E                     dE             d eps       ncg     rms          rms(c)
DAV:   1    -0.125543531282E+03   -0.28533E-03   -0.77161E-03  7104   0.357E-01    0.159E-02
DAV:   2    -0.125543533726E+03   -0.24436E-05   -0.10669E-04  7176   0.434E-02    0.108E-02
DAV:   3    -0.125543533136E+03    0.59049E-06   -0.86551E-06  9576   0.136E-02
  57 F= -.12713801E+03 E0= -.12713723E+03  d E =-.101573E-04
 curvature:  -4.27 expect dE=-0.268E-03 dE for cont linesearch -0.108E-05
 ZBRENT: interpolating
 opt :   0.6825  next Energy=  -127.138011 (dE=-0.109E-04)
 bond charge predicted
       N       E                     dE             d eps       ncg     rms          rms(c)
DAV:   1    -0.125543444816E+03    0.88910E-04   -0.72237E-04  7104   0.109E-01    0.394E-03
DAV:   2    -0.125543445335E+03   -0.51905E-06   -0.11478E-05  9240   0.138E-02    0.276E-03
DAV:   3    -0.125543445265E+03    0.69681E-07   -0.67873E-07  7968   0.389E-03
  58 F= -.12713801E+03 E0= -.12713723E+03  d E =-.102332E-04
 curvature:  -2.94 expect dE=-0.107E-03 dE for cont linesearch -0.559E-06
 ZBRENT: interpolating
 opt :   0.7792  next Energy=  -127.138011 (dE=-0.105E-04)
 bond charge predicted
       N       E                     dE             d eps       ncg     rms          rms(c)
DAV:   1    -0.125543486475E+03   -0.41140E-04   -0.15984E-04  7104   0.513E-02    0.196E-03
DAV:   2    -0.125543486559E+03   -0.84003E-07   -0.24747E-06  8064   0.646E-03
  59 F= -.12713801E+03 E0= -.12713723E+03  d E =-.106348E-04
 curvature:  -1.57 expect dE=-0.733E-04 dE for cont linesearch -0.564E-07
 trial: gam= 2.06086 g(F)=  0.466E-04 g(S)=  0.000E+00 ort = 0.269E-05 (trialstep = 0.739E-01)
 search vector abs. value=  0.913E-03
 bond charge predicted
       N       E                     dE             d eps       ncg     rms          rms(c)
DAV:   1    -0.125543557053E+03   -0.70578E-04   -0.42678E-04  7104   0.839E-02    0.393E-03
DAV:   2    -0.125543557107E+03   -0.54572E-07   -0.57127E-06  7968   0.999E-03
  60 F= -.12713801E+03 E0= -.12713723E+03  d E =-.358067E-05
 ZBRENT: can't locate minimum, use default step
 trial-energy change:   -0.000004  1 .order   -0.000004   -0.000004   -0.000004
 step:   0.2957(harm=  1.3090)  dis= 0.00051  next Energy=  -127.138045 (dE=-0.341E-04)
 bond charge predicted
       N       E                     dE             d eps       ncg     rms          rms(c)
DAV:   1    -0.125543766015E+03   -0.20896E-03   -0.38583E-03  7104   0.252E-01    0.113E-02
DAV:   2    -0.125543767012E+03   -0.99733E-06   -0.51314E-05  7176   0.299E-02    0.762E-03
DAV:   3    -0.125543766899E+03    0.11298E-06   -0.38516E-06  8904   0.914E-03
  61 F= -.12713802E+03 E0= -.12713724E+03  d E =-.126187E-04
 curvature:  -3.75 expect dE=-0.101E-03 dE for cont linesearch -0.308E-05
 ZBRENT: increasing intervall
 opt :   0.7393  next Energy=  -127.138026 (dE=-0.151E-04)
 bond charge predicted
       N       E                     dE             d eps       ncg     rms          rms(c)
DAV:   1    -0.125544174586E+03   -0.40757E-03   -0.15664E-02  7104   0.507E-01    0.225E-02
DAV:   2    -0.125544179553E+03   -0.49666E-05   -0.21039E-04  7248   0.605E-02    0.151E-02
DAV:   3    -0.125544178107E+03    0.14457E-05   -0.15497E-05  9984   0.184E-02    0.393E-03
DAV:   4    -0.125544178641E+03   -0.53442E-06   -0.41242E-06  8040   0.680E-03
  62 F= -.12713803E+03 E0= -.12713725E+03  d E =-.230676E-04
 curvature:  -3.01 expect dE=-0.131E-03 dE for cont linesearch -0.423E-06
 ZBRENT: increasing intervall
 opt :   1.6265  next Energy=  -127.138030 (dE=-0.189E-04)
 bond charge predicted
       N       E                     dE             d eps       ncg     rms          rms(c)
DAV:   1    -0.125544952213E+03   -0.77411E-03   -0.62348E-02  7104   0.101E+00    0.437E-02
DAV:   2    -0.125544975909E+03   -0.23697E-04   -0.84869E-04  7848   0.121E-01    0.293E-02
DAV:   3    -0.125544967349E+03    0.85598E-05   -0.59718E-05 10416   0.362E-02    0.787E-03
DAV:   4    -0.125544969045E+03   -0.16961E-05   -0.15630E-05  8160   0.132E-02    0.341E-03
DAV:   5    -0.125544969685E+03   -0.63971E-06   -0.45086E-07  6096   0.284E-03
  63 F= -.12713802E+03 E0= -.12713724E+03  d E =-.124164E-04
 curvature:  29.81 expect dE= 0.702E-02 dE for cont linesearch  0.507E-04
 ZBRENT: bracketing found
 ZBRENT: interpolating
 opt :   0.9374  next Energy=  -127.138035 (dE=-0.242E-04)
 bond charge predicted
       N       E                     dE             d eps       ncg     rms          rms(c)
DAV:   1    -0.125544349230E+03    0.61982E-03   -0.37538E-02  7104   0.784E-01    0.340E-02
DAV:   2    -0.125544362746E+03   -0.13515E-04   -0.50887E-04  8976   0.938E-02    0.229E-02
DAV:   3    -0.125544358328E+03    0.44180E-05   -0.35791E-05  9336   0.283E-02    0.598E-03
DAV:   4    -0.125544359154E+03   -0.82637E-06   -0.96588E-06  8016   0.104E-02
  64 F= -.12713804E+03 E0= -.12713726E+03  d E =-.245174E-04
 curvature:  -0.66 expect dE=-0.448E-04 dE for cont linesearch -0.478E-08
 trial: gam= 1.49803 g(F)=  0.680E-04 g(S)=  0.000E+00 ort = 0.257E-05 (trialstep = 0.106E+00)
 search vector abs. value=  0.212E-02
 bond charge predicted
       N       E                     dE             d eps       ncg     rms          rms(c)
DAV:   1    -0.125544513466E+03   -0.15514E-03   -0.20641E-03  7104   0.184E-01    0.824E-03
DAV:   2    -0.125544513791E+03   -0.32509E-06   -0.29498E-05  9168   0.226E-02    0.559E-03
DAV:   3    -0.125544513687E+03    0.10467E-06   -0.23155E-06  8640   0.715E-03
  65 F= -.12713804E+03 E0= -.12713726E+03  d E =-.664670E-05
 trial-energy change:   -0.000007  1 .order   -0.000006   -0.000008   -0.000004
 step:   0.2438(harm=  0.2438)  dis= 0.00057  next Energy=  -127.138044 (dE=-0.876E-05)
 bond charge predicted
       N       E                     dE             d eps       ncg     rms          rms(c)
DAV:   1    -0.125544710125E+03   -0.19633E-03   -0.35291E-03  7104   0.241E-01    0.110E-02
DAV:   2    -0.125544711012E+03   -0.88726E-06   -0.48081E-05  7176   0.291E-02    0.739E-03
DAV:   3    -0.125544710918E+03    0.94731E-07   -0.37564E-06  9240   0.906E-03
  66 F= -.12713805E+03 E0= -.12713727E+03  d E =-.115583E-04
 curvature:  -3.61 expect dE=-0.842E-04 dE for cont linesearch -0.228E-06
 ZBRENT: extrapolating
 opt :   0.2990  next Energy=  -127.138047 (dE=-0.119E-04)
 bond charge predicted
       N       E                     dE             d eps       ncg     rms          rms(c)
DAV:   1    -0.125544788851E+03   -0.77839E-04   -0.57604E-04  7104   0.973E-02    0.487E-03
DAV:   2    -0.125544788956E+03   -0.10498E-06   -0.74455E-06  7632   0.116E-02
  67 F= -.12713805E+03 E0= -.12713727E+03  d E =-.126950E-04
 curvature:  -5.05 expect dE=-0.124E-03 dE for cont linesearch -0.704E-06
 ZBRENT: increasing intervall
 opt :   0.4092  next Energy=  -127.138051 (dE=-0.152E-04)
 bond charge predicted
       N       E                     dE             d eps       ncg     rms          rms(c)
DAV:   1    -0.125544942524E+03   -0.15367E-03   -0.22047E-03  7104   0.191E-01    0.876E-03
DAV:   2    -0.125544943101E+03   -0.57735E-06   -0.29431E-05  7536   0.227E-02    0.592E-03
DAV:   3    -0.125544943126E+03   -0.25314E-07   -0.22596E-06  9840   0.701E-03
  68 F= -.12713805E+03 E0= -.12713727E+03  d E =-.131196E-04
 curvature: -18.04 expect dE=-0.744E-03 dE for cont linesearch -0.227E-05
 ZBRENT: bracketing found
 ZBRENT: interpolating
 opt :   0.3555  next Energy=  -127.138049 (dE=-0.136E-04)
 bond charge predicted
       N       E                     dE             d eps       ncg     rms          rms(c)
DAV:   1    -0.125544868226E+03    0.74874E-04   -0.51994E-04  7104   0.925E-02    0.362E-03
DAV:   2    -0.125544868482E+03   -0.25594E-06   -0.77685E-06  8784   0.114E-02
  69 F= -.12713805E+03 E0= -.12713727E+03  d E =-.134051E-04
 curvature:  -3.49 expect dE=-0.108E-03 dE for cont linesearch -0.114E-08
 trial: gam= 0.39253 g(F)=  0.310E-04 g(S)=  0.000E+00 ort = 0.835E-06 (trialstep = 0.156E+00)
 search vector abs. value=  0.359E-03
 bond charge predicted
       N       E                     dE             d eps       ncg     rms          rms(c)
DAV:   1    -0.125544963475E+03   -0.95248E-04   -0.73956E-04  7104   0.110E-01    0.456E-03
DAV:   2    -0.125544963774E+03   -0.29862E-06   -0.11182E-05  7584   0.138E-02    0.303E-03
DAV:   3    -0.125544963686E+03    0.87405E-07   -0.63200E-07  7224   0.383E-03
  70 F= -.12713805E+03 E0= -.12713727E+03  d E =-.429488E-05
 trial-energy change:   -0.000004  1 .order   -0.000004   -0.000005   -0.000004
 step:   0.5781(harm=  0.5781)  dis= 0.00058  next Energy=  -127.138058 (dE=-0.904E-05)
 bond charge predicted
       N       E                     dE             d eps       ncg     rms          rms(c)
DAV:   1    -0.125545213721E+03   -0.24995E-03   -0.53120E-03  7104   0.296E-01    0.137E-02
DAV:   2    -0.125545215443E+03   -0.17223E-05   -0.75462E-05  7248   0.363E-02    0.911E-03
DAV:   3    -0.125545215035E+03    0.40859E-06   -0.54618E-06  9960   0.108E-02
  71 F= -.12713806E+03 E0= -.12713728E+03  d E =-.947779E-05
 curvature:  -3.31 expect dE=-0.102E-03 dE for cont linesearch -0.115E-06
 trial: gam= 1.00075 g(F)=  0.309E-04 g(S)=  0.000E+00 ort =-0.352E-05 (trialstep = 0.225E+00)
 search vector abs. value=  0.383E-03
 bond charge predicted
       N       E                     dE             d eps       ncg     rms          rms(c)
DAV:   1    -0.125545354151E+03   -0.13871E-03   -0.15705E-03  7104   0.160E-01    0.807E-03
DAV:   2    -0.125545354624E+03   -0.47365E-06   -0.21371E-05  7128   0.194E-02    0.537E-03
DAV:   3    -0.125545354687E+03   -0.63038E-07   -0.15951E-06  9024   0.596E-03
  72 F= -.12713806E+03 E0= -.12713728E+03  d E =-.590785E-05
 trial-energy change:   -0.000006  1 .order   -0.000005   -0.000006   -0.000003
 step:   0.5061(harm=  0.5061)  dis= 0.00057  next Energy=  -127.138065 (dE=-0.693E-05)
 bond charge predicted
       N       E                     dE             d eps       ncg     rms          rms(c)
DAV:   1    -0.125545523628E+03   -0.16900E-03   -0.24319E-03  7104   0.199E-01    0.950E-03
DAV:   2    -0.125545524494E+03   -0.86528E-06   -0.33999E-05  7104   0.243E-02    0.635E-03
DAV:   3    -0.125545524414E+03    0.79474E-07   -0.23919E-06  9192   0.724E-03
  73 F= -.12713807E+03 E0= -.12713729E+03  d E =-.858367E-05
 curvature:  -3.54 expect dE=-0.490E-04 dE for cont linesearch -0.709E-07
 ZBRENT: interpolating
 opt :   0.4628  next Energy=  -127.138067 (dE=-0.864E-05)
 bond charge predicted
       N       E                     dE             d eps       ncg     rms          rms(c)
DAV:   1    -0.125545498658E+03    0.25836E-04   -0.54082E-05  7776   0.298E-02    0.107E-03
DAV:   2    -0.125545498737E+03   -0.79536E-07   -0.93326E-07  8160   0.394E-03
  74 F= -.12713807E+03 E0= -.12713729E+03  d E =-.865013E-05
 curvature:  -3.00 expect dE=-0.346E-04 dE for cont linesearch -0.544E-07
 ZBRENT: interpolating
 opt :   0.4839  next Energy=  -127.138067 (dE=-0.868E-05)
 bond charge predicted
       N       E                     dE             d eps       ncg     rms          rms(c)
DAV:   1    -0.125545511386E+03   -0.12728E-04   -0.14813E-05  8784   0.154E-02    0.601E-04
DAV:   2    -0.125545511409E+03   -0.22921E-07   -0.23913E-07  8640   0.204E-03
  75 F= -.12713807E+03 E0= -.12713729E+03  d E =-.876808E-05
 curvature:  -1.54 expect dE=-0.194E-04 dE for cont linesearch -0.308E-07
 ZBRENT: interpolating
 opt :   0.4950  next Energy=  -127.138067 (dE=-0.860E-05)
 bond charge predicted
       N       E                     dE             d eps       ncg     rms          rms(c)
DAV:   1    -0.125545518067E+03   -0.66807E-05   -0.35681E-06  8856   0.781E-03    0.442E-04
DAV:   2    -0.125545518090E+03   -0.23187E-07   -0.45775E-08  8088   0.910E-04
  76 F= -.12713807E+03 E0= -.12713729E+03  d E =-.884924E-05
 curvature:  -0.76 expect dE=-0.101E-04 dE for cont linesearch -0.882E-08
 trial: gam= 0.44371 g(F)=  0.132E-04 g(S)=  0.000E+00 ort = 0.210E-05 (trialstep = 0.279E+00)
 search vector abs. value=  0.905E-04
 bond charge predicted
       N       E                     dE             d eps       ncg     rms          rms(c)
DAV:   1    -0.125545597987E+03   -0.79921E-04   -0.59642E-04  7104   0.100E-01    0.481E-03
DAV:   2    -0.125545598120E+03   -0.13294E-06   -0.92676E-06  7680   0.128E-02
  77 F= -.12713807E+03 E0= -.12713729E+03  d E =-.251007E-05
 trial-energy change:   -0.000003  1 .order   -0.000003   -0.000004   -0.000001
 step:   0.4078(harm=  0.4078)  dis= 0.00020  next Energy=  -127.138070 (dE=-0.288E-05)
 bond charge predicted
       N       E                     dE             d eps       ncg     rms          rms(c)
DAV:   1    -0.125545634035E+03   -0.36047E-04   -0.12058E-04  7104   0.456E-02    0.292E-03
DAV:   2    -0.125545634026E+03    0.93296E-08   -0.16472E-06 10104   0.545E-03
  78 F= -.12713807E+03 E0= -.12713729E+03  d E =-.262034E-05
 curvature:  -1.31 expect dE=-0.679E-05 dE for cont linesearch -0.669E-08
 trial: gam= 0.53551 g(F)=  0.519E-05 g(S)=  0.000E+00 ort =-0.681E-06 (trialstep = 0.305E+00)
 search vector abs. value=  0.304E-04
 bond charge predicted
       N       E                     dE             d eps       ncg     rms          rms(c)
DAV:   1    -0.125545685847E+03   -0.51812E-04   -0.25425E-04  7104   0.659E-02    0.319E-03
DAV:   2    -0.125545685876E+03   -0.29247E-07   -0.37334E-06  7248   0.813E-03
  79 F= -.12713807E+03 E0= -.12713729E+03  d E =-.839166E-06
 trial-energy change:   -0.000001  1 .order   -0.000001   -0.000001   -0.000000
 step:   0.3956(harm=  0.3956)  dis= 0.00013  next Energy=  -127.138071 (dE=-0.956E-06)
 bond charge predicted
       N       E                     dE             d eps       ncg     rms          rms(c)
DAV:   1    -0.125545701124E+03   -0.15277E-04   -0.21263E-05  7104   0.193E-02    0.136E-03
DAV:   2    -0.125545701122E+03    0.20073E-08   -0.23889E-07  8712   0.221E-03
  80 F= -.12713807E+03 E0= -.12713729E+03  d E =-.877341E-06
 curvature:  -1.25 expect dE=-0.470E-05 dE for cont linesearch -0.421E-09
 trial: gam= 0.55272 g(F)=  0.377E-05 g(S)=  0.000E+00 ort =-0.101E-06 (trialstep = 0.323E+00)
 search vector abs. value=  0.130E-04
 bond charge predicted
       N       E                     dE             d eps       ncg     rms          rms(c)
DAV:   1    -0.125545738374E+03   -0.37249E-04   -0.14020E-04  7152   0.492E-02    0.224E-03
DAV:   2    -0.125545738392E+03   -0.18767E-07   -0.20562E-06  7104   0.610E-03
  81 F= -.12713807E+03 E0= -.12713729E+03  d E =-.803300E-06
 trial-energy change:   -0.000001  1 .order   -0.000001   -0.000001   -0.000000
 step:   0.5156(harm=  0.5156)  dis= 0.00012  next Energy=  -127.138072 (dE=-0.957E-06)
 bond charge predicted
       N       E                     dE             d eps       ncg     rms          rms(c)
DAV:   1    -0.125545760235E+03   -0.21861E-04   -0.48084E-05  7104   0.290E-02    0.164E-03
DAV:   2    -0.125545760227E+03    0.81955E-08   -0.57592E-07  8280   0.341E-03
  82 F= -.12713807E+03 E0= -.12713729E+03  d E =-.886818E-06
 curvature:  -0.90 expect dE=-0.350E-05 dE for cont linesearch -0.573E-10
 trial: gam= 1.04131 g(F)=  0.389E-05 g(S)=  0.000E+00 ort = 0.287E-07 (trialstep = 0.260E+00)
 search vector abs. value=  0.180E-04
 bond charge predicted
       N       E                     dE             d eps       ncg     rms          rms(c)
DAV:   1    -0.125545796515E+03   -0.36280E-04   -0.12905E-04  7104   0.469E-02    0.209E-03
DAV:   2    -0.125545796511E+03    0.37307E-08   -0.16759E-06  7248   0.550E-03
  83 F= -.12713807E+03 E0= -.12713729E+03  d E =-.744791E-06
 trial-energy change:   -0.000001  1 .order   -0.000001   -0.000001   -0.000001
 step:   0.5875(harm=  0.5875)  dis= 0.00018  next Energy=  -127.138073 (dE=-0.115E-05)
 bond charge predicted
       N       E                     dE             d eps       ncg     rms          rms(c)
DAV:   1    -0.125545841573E+03   -0.45058E-04   -0.20456E-04  7104   0.590E-02    0.286E-03
DAV:   2    -0.125545841530E+03    0.43357E-07   -0.25583E-06  7392   0.685E-03
  84 F= -.12713807E+03 E0= -.12713729E+03  d E =-.105102E-05
 curvature:  -1.35 expect dE=-0.476E-05 dE for cont linesearch -0.345E-08
 trial: gam= 0.81589 g(F)=  0.353E-05 g(S)=  0.000E+00 ort = 0.215E-06 (trialstep = 0.326E+00)
 search vector abs. value=  0.159E-04
 bond charge predicted
       N       E                     dE             d eps       ncg     rms          rms(c)
DAV:   1    -0.125545883238E+03   -0.41665E-04   -0.18696E-04  7104   0.564E-02    0.277E-03
DAV:   2    -0.125545883221E+03    0.17023E-07   -0.24503E-06  7488   0.667E-03
  85 F= -.12713807E+03 E0= -.12713729E+03  d E =-.716812E-06
 trial-energy change:   -0.000001  1 .order   -0.000001   -0.000001   -0.000000
 step:   0.4637(harm=  0.4637)  dis= 0.00014  next Energy=  -127.138073 (dE=-0.860E-06)
 bond charge predicted
       N       E                     dE             d eps       ncg     rms          rms(c)
DAV:   1    -0.125545900659E+03   -0.17421E-04   -0.32067E-05  7104   0.235E-02    0.135E-03
DAV:   2    -0.125545900653E+03    0.62755E-08   -0.32925E-07  8160   0.260E-03
  86 F= -.12713807E+03 E0= -.12713729E+03  d E =-.779491E-06
 curvature:  -0.99 expect dE=-0.334E-05 dE for cont linesearch -0.344E-09
 trial: gam= 1.05491 g(F)=  0.337E-05 g(S)=  0.000E+00 ort =-0.742E-07 (trialstep = 0.269E+00)
 search vector abs. value=  0.209E-04
 bond charge predicted
       N       E                     dE             d eps       ncg     rms          rms(c)
DAV:   1    -0.125545941028E+03   -0.40369E-04   -0.16280E-04  7104   0.521E-02    0.233E-03
DAV:   2    -0.125545941003E+03    0.25495E-07   -0.20829E-06  7104   0.612E-03
  87 F= -.12713807E+03 E0= -.12713729E+03  d E =-.653073E-06
 trial-energy change:   -0.000001  1 .order   -0.000001   -0.000001   -0.000001
 step:   0.7136(harm=  0.7136)  dis= 0.00026  next Energy=  -127.138075 (dE=-0.117E-05)
 bond charge predicted
       N       E                     dE             d eps       ncg     rms          rms(c)
DAV:   1    -0.125546007166E+03   -0.66138E-04   -0.44634E-04  7104   0.863E-02    0.412E-03
DAV:   2    -0.125546007060E+03    0.10637E-06   -0.56218E-06  7104   0.101E-02
  88 F= -.12713807E+03 E0= -.12713729E+03  d E =-.936719E-06
 curvature:  -2.26 expect dE=-0.804E-05 dE for cont linesearch -0.276E-08
 trial: gam= 0.83488 g(F)=  0.355E-05 g(S)=  0.000E+00 ort = 0.159E-06 (trialstep = 0.358E+00)
 search vector abs. value=  0.184E-04
 bond charge predicted
       N       E                     dE             d eps       ncg     rms          rms(c)
DAV:   1    -0.125546058744E+03   -0.51577E-04   -0.24344E-04  7104   0.641E-02    0.333E-03
DAV:   2    -0.125546058739E+03    0.50377E-08   -0.32755E-06  7200   0.767E-03
  89 F= -.12713807E+03 E0= -.12713729E+03  d E =-.655554E-06
 trial-energy change:   -0.000001  1 .order   -0.000001   -0.000001   -0.000000
 step:   0.4197(harm=  0.4197)  dis= 0.00010  next Energy=  -127.138075 (dE=-0.773E-06)
 bond charge predicted
       N       E                     dE             d eps       ncg     rms          rms(c)
DAV:   1    -0.125546067652E+03   -0.89082E-05   -0.65399E-06  7104   0.108E-02    0.863E-04
DAV:   2    -0.125546067656E+03   -0.38854E-08   -0.50885E-08  7824   0.104E-03
  90 F= -.12713808E+03 E0= -.12713730E+03  d E =-.709732E-06
 curvature:  -1.05 expect dE=-0.394E-05 dE for cont linesearch -0.223E-08
 trial: gam= 1.08211 g(F)=  0.377E-05 g(S)=  0.000E+00 ort =-0.198E-06 (trialstep = 0.273E+00)
 search vector abs. value=  0.248E-04
 bond charge predicted
       N       E                     dE             d eps       ncg     rms          rms(c)
DAV:   1    -0.125546115216E+03   -0.47565E-04   -0.18024E-04  7104   0.543E-02    0.249E-03
DAV:   2    -0.125546115219E+03   -0.29931E-08   -0.25081E-06  7104   0.670E-03
  91 F= -.12713808E+03 E0= -.12713730E+03  d E =-.787795E-06
 trial-energy change:   -0.000001  1 .order   -0.000001   -0.000001   -0.000001
 step:   0.8991(harm=  0.8991)  dis= 0.00026  next Energy=  -127.138077 (dE=-0.160E-05)
 bond charge predicted
       N       E                     dE             d eps       ncg     rms          rms(c)
DAV:   1    -0.125546222645E+03   -0.10743E-03   -0.93368E-04  7104   0.124E-01    0.602E-03
DAV:   2    -0.125546222637E+03    0.83173E-08   -0.12758E-05  7344   0.152E-02    0.398E-03
DAV:   3    -0.125546222619E+03    0.17541E-07   -0.10469E-06  7536   0.488E-03
  92 F= -.12713808E+03 E0= -.12713730E+03  d E =-.118694E-05
 curvature:  -3.14 expect dE=-0.200E-04 dE for cont linesearch -0.261E-06
 ZBRENT: interpolating
 opt :   0.6694  next Energy=  -127.138076 (dE=-0.135E-05)
 bond charge predicted
       N       E                     dE             d eps       ncg     rms          rms(c)
DAV:   1    -0.125546183411E+03    0.39226E-04   -0.12386E-04  7800   0.450E-02    0.177E-03
DAV:   2    -0.125546183467E+03   -0.56506E-07   -0.19835E-06  8832   0.578E-03
  93 F= -.12713808E+03 E0= -.12713730E+03  d E =-.132116E-05
 curvature:  -1.99 expect dE=-0.768E-05 dE for cont linesearch -0.187E-08
 trial: gam= 0.74679 g(F)=  0.387E-05 g(S)=  0.000E+00 ort = 0.153E-06 (trialstep = 0.353E+00)
 search vector abs. value=  0.179E-04
 bond charge predicted
       N       E                     dE             d eps       ncg     rms          rms(c)
DAV:   1    -0.125546231812E+03   -0.48401E-04   -0.22602E-04  7104   0.609E-02    0.268E-03
DAV:   2    -0.125546231875E+03   -0.63291E-07   -0.34800E-06  7248   0.771E-03
  94 F= -.12713808E+03 E0= -.12713730E+03  d E =-.794998E-06
 trial-energy change:   -0.000001  1 .order   -0.000001   -0.000001   -0.000000
 step:   0.4202(harm=  0.4202)  dis= 0.00011  next Energy=  -127.138077 (dE=-0.836E-06)
 bond charge predicted
       N       E                     dE             d eps       ncg     rms          rms(c)
DAV:   1    -0.125546240970E+03   -0.91586E-05   -0.71027E-06  9000   0.112E-02    0.975E-04
DAV:   2    -0.125546240967E+03    0.36553E-08   -0.61622E-08  7344   0.114E-03
  95 F= -.12713808E+03 E0= -.12713730E+03  d E =-.761844E-06
 curvature:  -0.95 expect dE=-0.268E-05 dE for cont linesearch -0.172E-08
 trial: gam= 0.93030 g(F)=  0.283E-05 g(S)=  0.000E+00 ort =-0.181E-06 (trialstep = 0.365E+00)
 search vector abs. value=  0.180E-04
 bond charge predicted
       N       E                     dE             d eps       ncg     rms          rms(c)
DAV:   1    -0.125546290804E+03   -0.49834E-04   -0.23107E-04  7104   0.618E-02    0.290E-03
DAV:   2    -0.125546290781E+03    0.22994E-07   -0.32407E-06  7104   0.759E-03
  96 F= -.12713808E+03 E0= -.12713730E+03  d E =-.554204E-06
 trial-energy change:   -0.000001  1 .order   -0.000001   -0.000001   -0.000000
 step:   0.5926(harm=  0.5926)  dis= 0.00015  next Energy=  -127.138078 (dE=-0.789E-06)
 bond charge predicted
       N       E                     dE             d eps       ncg     rms          rms(c)
DAV:   1    -0.125546321627E+03   -0.30823E-04   -0.86947E-05  7104   0.382E-02    0.219E-03
DAV:   2    -0.125546321586E+03    0.41122E-07   -0.10219E-06  5664   0.452E-03
  97 F= -.12713808E+03 E0= -.12713730E+03  d E =-.560289E-06
 curvature:  -2.01 expect dE=-0.641E-05 dE for cont linesearch -0.362E-10
 trial: gam= 0.91230 g(F)=  0.320E-05 g(S)=  0.000E+00 ort =-0.180E-07 (trialstep = 0.407E+00)
 search vector abs. value=  0.182E-04
 bond charge predicted
       N       E                     dE             d eps       ncg     rms          rms(c)
DAV:   1    -0.125546377909E+03   -0.56282E-04   -0.30830E-04  7104   0.720E-02    0.341E-03
DAV:   2    -0.125546377931E+03   -0.21517E-07   -0.41942E-06  7104   0.865E-03
  98 F= -.12713808E+03 E0= -.12713730E+03  d E =-.522191E-06
 trial-energy change:   -0.000001  1 .order   -0.000001   -0.000001    0.000000
 step:   0.4037(harm=  0.4037)  dis= 0.00009  next Energy=  -127.138078 (dE=-0.642E-06)
 bond charge predicted
       N       E                     dE             d eps       ncg     rms          rms(c)
DAV:   1    -0.125546377492E+03    0.41737E-06   -0.45034E-07  5616   0.317E-03    0.549E-04
DAV:   2    -0.125546377510E+03   -0.18305E-07   -0.10041E-07  6096   0.124E-03
  99 F= -.12713808E+03 E0= -.12713730E+03  d E =-.546553E-06
 curvature:  -1.15 expect dE=-0.298E-05 dE for cont linesearch -0.125E-07
 trial: gam= 0.78094 g(F)=  0.259E-05 g(S)=  0.000E+00 ort =-0.444E-06 (trialstep = 0.406E+00)
 search vector abs. value=  0.130E-04
 bond charge predicted
       N       E                     dE             d eps       ncg     rms          rms(c)
DAV:   1    -0.125546425762E+03   -0.48270E-04   -0.23063E-04  7104   0.619E-02    0.287E-03
DAV:   2    -0.125546425724E+03    0.38213E-07   -0.31142E-06  7104   0.746E-03
 100 F= -.12713808E+03 E0= -.12713730E+03  d E =-.614053E-06
 trial-energy change:   -0.000001  1 .order   -0.000001   -0.000001   -0.000000
 step:   0.6930(harm=  0.6930)  dis= 0.00014  next Energy=  -127.138079 (dE=-0.777E-06)
 bond charge predicted
       N       E                     dE             d eps       ncg     rms          rms(c)
DAV:   1    -0.125546459351E+03   -0.33589E-04   -0.10955E-04  7104   0.430E-02    0.233E-03
DAV:   2    -0.125546459302E+03    0.49171E-07   -0.12042E-06  5592   0.490E-03
 101 F= -.12713808E+03 E0= -.12713730E+03  d E =-.596233E-06
 curvature:  -2.01 expect dE=-0.688E-05 dE for cont linesearch -0.426E-08
 trial: gam= 1.39754 g(F)=  0.343E-05 g(S)=  0.000E+00 ort =-0.166E-06 (trialstep = 0.213E+00)
 search vector abs. value=  0.283E-04
 bond charge predicted
       N       E                     dE             d eps       ncg     rms          rms(c)
DAV:   1    -0.125546496512E+03   -0.37161E-04   -0.13373E-04  7104   0.473E-02    0.221E-03
DAV:   2    -0.125546496512E+03   -0.27649E-09   -0.16571E-06  7200   0.545E-03
 102 F= -.12713808E+03 E0= -.12713730E+03  d E =-.423200E-06
 trial-energy change:   -0.000000  1 .order   -0.000000   -0.000001   -0.000000
 step:   0.3775(harm=  0.3775)  dis= 0.00012  next Energy=  -127.138079 (dE=-0.604E-06)
 bond charge predicted
       N       E                     dE             d eps       ncg     rms          rms(c)
DAV:   1    -0.125546525199E+03   -0.28686E-04   -0.80444E-05  7104   0.366E-02    0.184E-03
DAV:   2    -0.125546525178E+03    0.20728E-07   -0.84020E-07  5520   0.413E-03
 103 F= -.12713808E+03 E0= -.12713730E+03  d E =-.558922E-06
 curvature:  -1.67 expect dE=-0.483E-05 dE for cont linesearch -0.107E-07
 trial: gam= 0.52375 g(F)=  0.289E-05 g(S)=  0.000E+00 ort = 0.426E-06 (trialstep = 0.246E+00)
 search vector abs. value=  0.111E-04
 bond charge predicted
       N       E                     dE             d eps       ncg     rms          rms(c)
DAV:   1    -0.125546549583E+03   -0.24384E-04   -0.70682E-05  7104   0.348E-02    0.172E-03
DAV:   2    -0.125546549550E+03    0.32265E-07   -0.88882E-07  6240   0.416E-03
 104 F= -.12713808E+03 E0= -.12713730E+03  d E =-.553429E-06
 trial-energy change:   -0.000001  1 .order   -0.000001   -0.000001   -0.000000
 step:   0.5921(harm=  0.5921)  dis= 0.00013  next Energy=  -127.138080 (dE=-0.921E-06)
 bond charge predicted
       N       E                     dE             d eps       ncg     rms          rms(c)
DAV:   1    -0.125546583384E+03   -0.33801E-04   -0.14161E-04  7104   0.492E-02    0.246E-03
DAV:   2    -0.125546583346E+03    0.38077E-07   -0.20409E-06  7104   0.596E-03
 105 F= -.12713808E+03 E0= -.12713730E+03  d E =-.726137E-06
 curvature:  -1.06 expect dE=-0.211E-05 dE for cont linesearch -0.599E-08
 trial: gam= 0.90609 g(F)=  0.200E-05 g(S)=  0.000E+00 ort =-0.251E-06 (trialstep = 0.315E+00)
 search vector abs. value=  0.107E-04
 bond charge predicted
       N       E                     dE             d eps       ncg     rms          rms(c)
DAV:   1    -0.125546614042E+03   -0.30658E-04   -0.10690E-04  7104   0.428E-02    0.220E-03
DAV:   2    -0.125546614002E+03    0.39574E-07   -0.12878E-06  6216   0.504E-03
 106 F= -.12713808E+03 E0= -.12713730E+03  d E =-.228342E-06
 trial-energy change:   -0.000000  1 .order   -0.000000   -0.000001   -0.000000
 step:   0.3791(harm=  0.3791)  dis= 0.00008  next Energy=  -127.138080 (dE=-0.335E-06)
 bond charge predicted
       N       E                     dE             d eps       ncg     rms          rms(c)
DAV:   1    -0.125546620235E+03   -0.61936E-05   -0.40073E-06  7128   0.868E-03    0.655E-04
DAV:   2    -0.125546620239E+03   -0.39627E-08   -0.34664E-08  8304   0.809E-04
 107 F= -.12713808E+03 E0= -.12713730E+03  d E =-.258726E-06
 curvature:  -1.14 expect dE=-0.180E-05 dE for cont linesearch -0.695E-08
 trial: gam= 0.60562 g(F)=  0.157E-05 g(S)=  0.000E+00 ort =-0.255E-06 (trialstep = 0.328E+00)
 search vector abs. value=  0.517E-05
 bond charge predicted
       N       E                     dE             d eps       ncg     rms          rms(c)
DAV:   1    -0.125546643113E+03   -0.22878E-04   -0.54721E-05  8352   0.305E-02    0.146E-03
DAV:   2    -0.125546643104E+03    0.96970E-08   -0.73977E-07  5928   0.377E-03
 108 F= -.12713808E+03 E0= -.12713730E+03  d E =-.302328E-06
 trial-energy change:   -0.000000  1 .order   -0.000000   -0.000000   -0.000000
 step:   0.5403(harm=  0.5403)  dis= 0.00007  next Energy=  -127.138081 (dE=-0.383E-06)
 bond charge predicted
       N       E                     dE             d eps       ncg     rms          rms(c)
DAV:   1    -0.125546657760E+03   -0.14646E-04   -0.21866E-05  7104   0.196E-02    0.110E-03
DAV:   2    -0.125546657756E+03    0.35852E-08   -0.29224E-07  7344   0.237E-03
 109 F= -.12713808E+03 E0= -.12713730E+03  d E =-.311527E-06
 curvature:  -0.99 expect dE=-0.168E-05 dE for cont linesearch -0.460E-08
 trial: gam= 1.07512 g(F)=  0.170E-05 g(S)=  0.000E+00 ort =-0.155E-06 (trialstep = 0.261E+00)
 search vector abs. value=  0.735E-05
 bond charge predicted
       N       E                     dE             d eps       ncg     rms          rms(c)
DAV:   1    -0.125546679505E+03   -0.21746E-04   -0.45743E-05  7128   0.280E-02    0.138E-03
DAV:   2    -0.125546679504E+03    0.83310E-09   -0.65338E-07  5376   0.355E-03
 110 F= -.12713808E+03 E0= -.12713730E+03  d E =-.234264E-06
 trial-energy change:   -0.000000  1 .order   -0.000000   -0.000000   -0.000000
 step:   0.4097(harm=  0.4097)  dis= 0.00005  next Energy=  -127.138081 (dE=-0.315E-06)
 bond charge predicted
       N       E                     dE             d eps       ncg     rms          rms(c)
DAV:   1    -0.125546691830E+03   -0.12324E-04   -0.14468E-05  7152   0.160E-02    0.927E-04
DAV:   2    -0.125546691830E+03   -0.14188E-09   -0.20708E-07  7656   0.195E-03
 111 F= -.12713808E+03 E0= -.12713730E+03  d E =-.255729E-06
 curvature:  -0.98 expect dE=-0.955E-06 dE for cont linesearch -0.527E-09
 trial: gam= 0.44538 g(F)=  0.975E-06 g(S)=  0.000E+00 ort =-0.629E-07 (trialstep = 0.290E+00)
 search vector abs. value=  0.238E-05
 bond charge predicted
       N       E                     dE             d eps       ncg     rms          rms(c)
DAV:   1    -0.125546704047E+03   -0.12217E-04   -0.18676E-05  7128   0.181E-02    0.945E-04
DAV:   2    -0.125546704040E+03    0.72996E-08   -0.28144E-07  6096   0.233E-03
 112 F= -.12713808E+03 E0= -.12713730E+03  d E =-.182383E-06
 trial-energy change:   -0.000000  1 .order   -0.000000   -0.000000   -0.000000
 step:   0.5233(harm=  0.5233)  dis= 0.00004  next Energy=  -127.138081 (dE=-0.248E-06)
 bond charge predicted
       N       E                     dE             d eps       ncg     rms          rms(c)
DAV:   1    -0.125546713716E+03   -0.96691E-05   -0.11727E-05  7344   0.144E-02    0.812E-04
DAV:   2    -0.125546713713E+03    0.33961E-08   -0.17008E-07  8064   0.179E-03
 113 F= -.12713808E+03 E0= -.12713730E+03  d E =-.212616E-06
 curvature:  -0.66 expect dE=-0.721E-06 dE for cont linesearch -0.321E-09
 trial: gam= 1.13982 g(F)=  0.110E-05 g(S)=  0.000E+00 ort =-0.341E-07 (trialstep = 0.195E+00)
 search vector abs. value=  0.411E-05
 bond charge predicted
       N       E                     dE             d eps       ncg     rms          rms(c)
DAV:   1    -0.125546724148E+03   -0.10432E-04   -0.14298E-05  7152   0.157E-02    0.816E-04
DAV:   2    -0.125546724141E+03    0.73724E-08   -0.20447E-07  5856   0.197E-03
 114 F= -.12713808E+03 E0= -.12713730E+03  d E =-.143719E-06
 trial-energy change:   -0.000000  1 .order   -0.000000   -0.000000   -0.000000
 step:   0.4324(harm=  0.4324)  dis= 0.00005  next Energy=  -127.138081 (dE=-0.229E-06)
 bond charge predicted
       N       E                     dE             d eps       ncg     rms          rms(c)
DAV:   1    -0.125546736726E+03   -0.12578E-04   -0.21198E-05  7104   0.191E-02    0.104E-03
DAV:   2    -0.125546736713E+03    0.13221E-07   -0.29415E-07  5952   0.236E-03
 115 F= -.12713808E+03 E0= -.12713730E+03  d E =-.187830E-06
 curvature:  -0.84 expect dE=-0.369E-06 dE for cont linesearch -0.490E-10
 trial: gam= 0.32358 g(F)=  0.440E-06 g(S)=  0.000E+00 ort = 0.155E-07 (trialstep = 0.242E+00)
 search vector abs. value=  0.881E-06
 bond charge predicted
       N       E                     dE             d eps       ncg     rms          rms(c)
DAV:   1    -0.125546742842E+03   -0.61160E-05   -0.50994E-06  7536   0.959E-03    0.567E-04
DAV:   2    -0.125546742843E+03   -0.10305E-08   -0.81472E-08  8112   0.124E-03
 116 F= -.12713808E+03 E0= -.12713730E+03  d E =-.913508E-07
 trial-energy change:   -0.000000  1 .order   -0.000000   -0.000000   -0.000000
 step:   0.6086(harm=  0.6086)  dis= 0.00003  next Energy=  -127.138081 (dE=-0.136E-06)
 bond charge predicted
       N       E                     dE             d eps       ncg     rms          rms(c)
DAV:   1    -0.125546752003E+03   -0.91612E-05   -0.11702E-05  7776   0.144E-02    0.768E-04
DAV:   2    -0.125546752000E+03    0.27603E-08   -0.15729E-07  5904   0.174E-03
 117 F= -.12713808E+03 E0= -.12713730E+03  d E =-.127494E-06
 curvature:  -0.60 expect dE=-0.374E-06 dE for cont linesearch -0.284E-09
 trial: gam= 1.43322 g(F)=  0.621E-06 g(S)=  0.000E+00 ort =-0.204E-07 (trialstep = 0.117E+00)
 search vector abs. value=  0.237E-05
 bond charge predicted
       N       E                     dE             d eps       ncg     rms          rms(c)
DAV:   1    -0.125546756966E+03   -0.49627E-05   -0.30727E-06  7992   0.732E-03    0.410E-04
DAV:   2    -0.125546756966E+03   -0.38290E-09   -0.40343E-08  5160   0.864E-04
 118 F= -.12713808E+03 E0= -.12713730E+03  d E =-.539281E-07
 trial-energy change:   -0.000000  1 .order   -0.000000   -0.000000   -0.000000
 step:   0.3415(harm=  0.3415)  dis= 0.00003  next Energy=  -127.138082 (dE=-0.101E-06)
 bond charge predicted
       N       E                     dE             d eps       ncg     rms          rms(c)
DAV:   1    -0.125546766412E+03   -0.94457E-05   -0.11674E-05  8328   0.140E-02    0.717E-04
DAV:   2    -0.125546766408E+03    0.33933E-08   -0.14870E-07  6120   0.167E-03
 119 F= -.12713808E+03 E0= -.12713730E+03  d E =-.986932E-07
 curvature:  -0.68 expect dE=-0.226E-06 dE for cont linesearch -0.210E-08
 ZBRENT: extrapolating
 opt :   0.4044  next Energy=  -127.138082 (dE=-0.101E-06)
 bond charge predicted
       N       E                     dE             d eps       ncg     rms          rms(c)
DAV:   1    -0.125546769046E+03   -0.26341E-05   -0.81793E-07  5472   0.392E-03    0.269E-04
DAV:   2    -0.125546769048E+03   -0.23892E-08   -0.28977E-08  7248   0.841E-04
 120 F= -.12713808E+03 E0= -.12713730E+03  d E =-.987164E-07
 curvature:  -0.88 expect dE=-0.390E-06 dE for cont linesearch -0.467E-08
 ZBRENT: bracketing found
 ZBRENT: interpolating
 opt :   0.3686  next Energy=  -127.138082 (dE=-0.999E-07)
 bond charge predicted
       N       E                     dE             d eps       ncg     rms          rms(c)
DAV:   1    -0.125546767550E+03    0.14959E-05   -0.30127E-07  7440   0.224E-03    0.102E-04
DAV:   2    -0.125546767550E+03    0.40018E-10   -0.87522E-09  7224   0.471E-04
 121 F= -.12713808E+03 E0= -.12713730E+03  d E =-.101745E-06
 curvature:  -0.22 expect dE=-0.872E-07 dE for cont linesearch -0.172E-14
 trial: gam= 0.40746 g(F)=  0.401E-06 g(S)=  0.000E+00 ort =-0.137E-09 (trialstep = 0.167E+00)
 search vector abs. value=  0.795E-06
 bond charge predicted
       N       E                     dE             d eps       ncg     rms          rms(c)
DAV:   1    -0.125546770995E+03   -0.34451E-05   -0.22013E-06  8688   0.624E-03    0.293E-04
DAV:   2    -0.125546770993E+03    0.18790E-08   -0.30143E-08  5376   0.761E-04
 122 F= -.12713808E+03 E0= -.12713730E+03  d E =-.536657E-07
 trial-energy change:   -0.000000  1 .order   -0.000000   -0.000000   -0.000000
 step:   0.5420(harm=  0.5420)  dis= 0.00003  next Energy=  -127.138082 (dE=-0.109E-06)
 bond charge predicted
       N       E                     dE             d eps       ncg     rms          rms(c)
DAV:   1    -0.125546778619E+03   -0.76240E-05   -0.10837E-05  7104   0.139E-02    0.709E-04
DAV:   2    -0.125546778611E+03    0.73651E-08   -0.14143E-07  5784   0.167E-03
 123 F= -.12713808E+03 E0= -.12713730E+03  d E =-.937966E-07
 curvature:  -0.54 expect dE=-0.242E-06 dE for cont linesearch -0.420E-10
 trial: gam= 1.12871 g(F)=  0.451E-06 g(S)=  0.000E+00 ort = 0.789E-08 (trialstep = 0.130E+00)
 search vector abs. value=  0.148E-05
 bond charge predicted
       N       E                     dE             d eps       ncg     rms          rms(c)
DAV:   1    -0.125546782317E+03   -0.36983E-05   -0.22620E-06  7104   0.629E-03    0.368E-04
DAV:   2    -0.125546782315E+03    0.18917E-08   -0.28776E-08  4200   0.743E-04
 124 F= -.12713808E+03 E0= -.12713730E+03  d E =-.446754E-07
 trial-energy change:   -0.000000  1 .order   -0.000000   -0.000000   -0.000000
 step:   0.3971(harm=  0.3971)  dis= 0.00003  next Energy=  -127.138082 (dE=-0.914E-07)
 bond charge predicted
       N       E                     dE             d eps       ncg     rms          rms(c)
DAV:   1    -0.125546789878E+03   -0.75607E-05   -0.99421E-06  8184   0.130E-02    0.675E-04
DAV:   2    -0.125546789869E+03    0.87575E-08   -0.12980E-07  5712   0.155E-03
 125 F= -.12713808E+03 E0= -.12713730E+03  d E =-.831535E-07
 curvature:  -0.64 expect dE=-0.157E-06 dE for cont linesearch -0.190E-08
 trial: gam= 0.34702 g(F)=  0.245E-06 g(S)=  0.000E+00 ort = 0.664E-07 (trialstep = 0.183E+00)
 search vector abs. value=  0.470E-06
 reached required accuracy - stopping structural energy minimisation
