Lattice                                 
           1
     4.234864    2.445000    0.000000
    -4.234864    2.445000    0.000000
     0.000000    0.000000   15.000000
   B    C 
     4    11
Direct configuration=     1
   0.00415361  0.00267210  0.12034134
   0.35695335  0.00285503  0.09748893
   0.00423858  0.35550699  0.09749256
   0.65142295  0.65006557  0.09747688
   0.32808646  0.32671938  0.10030508
   0.68027775  0.00278085  0.10027562
   0.00416530  0.67883808  0.10026559
   0.99999933  0.49999967  0.33373333
   0.16666633  0.33333267  0.33373333
   0.99999933  0.99999967  0.33373333
   0.16666633  0.83333267  0.33373333
   0.49999933  0.49999967  0.33373333
   0.66666633  0.33333267  0.33373333
   0.49999933  0.99999967  0.33373333
   0.66666633  0.83333267  0.33373333
Direct configuration=     2
   0.00417753  0.00274372  0.11896480
   0.35556872  0.00304597  0.09790521
   0.00395499  0.35388846  0.09790714
   0.65303521  0.65141187  0.09789679
   0.32389707  0.32217779  0.10030006
   0.68478195  0.00311520  0.10027937
   0.00387263  0.68304844  0.10027233
   0.00012617  0.49996777  0.33374464
   0.16685880  0.33393267  0.33380775
   0.99999968  0.99999413  0.33363766
   0.16706683  0.83313904  0.33381067
   0.50004724  0.50017123  0.33374754
   0.66666654  0.33333795  0.33368722
   0.49984292  0.99987163  0.33374413
   0.66606437  0.83292146  0.33380736
Direct configuration=     3
   0.00416567  0.00270823  0.11964699
   0.35625492  0.00295134  0.09769891
   0.00409553  0.35469058  0.09770168
   0.65223621  0.65074467  0.09768869
   0.32597326  0.32442852  0.10030255
   0.68254974  0.00294950  0.10027751
   0.00401767  0.68096186  0.10026899
   0.00006331  0.49998358  0.33373904
   0.16676342  0.33363532  0.33377087
   0.99999951  0.99999688  0.33368508
   0.16686835  0.83323500  0.33377234
   0.50002350  0.50008621  0.33374050
   0.66666644  0.33333533  0.33371007
   0.49992044  0.99993509  0.33373878
   0.66636269  0.83312525  0.33377067
Direct configuration=     4
   0.00417825  0.00275942  0.11854417
   0.35671311  0.00308358  0.09805615
   0.00388776  0.35499267  0.09805733
   0.65194670  0.65025860  0.09804927
   0.32616272  0.32439283  0.10026346
   0.68256741  0.00315234  0.10024657
   0.00382764  0.68078900  0.10024026
  -0.00006948  0.50001809  0.33376275
   0.16661675  0.33313861  0.33381613
   0.99999987  0.00000269  0.33364273
   0.16653064  0.83338893  0.33381962
   0.49997707  0.49991007  0.33376618
   0.66666944  0.33333236  0.33367045
   0.50008501  0.00006971  0.33376205
   0.66686777  0.83347843  0.33381553
Direct configuration=     5
   0.00420174  0.00285510  0.11648339
   0.35756931  0.00333068  0.09872372
   0.00349950  0.35555718  0.09872192
   0.65140572  0.64935031  0.09872307
   0.32651677  0.32432613  0.10019043
   0.68260043  0.00353139  0.10018876
   0.00347254  0.68046599  0.10018657
  -0.00031761  0.50008258  0.33380706
   0.16634269  0.33221044  0.33390071
   0.00000053  0.00001355  0.33356359
   0.16589957  0.83367656  0.33390796
   0.49989032  0.49958093  0.33381418
   0.66667505  0.33332680  0.33359640
   0.50039253  0.00032129  0.33380554
   0.66781158  0.83413841  0.33389936
Direct configuration=     6
   0.00420389  0.00286439  0.11618753
   0.35768719  0.00335445  0.09880610
   0.00346154  0.35564777  0.09880395
   0.65131952  0.64922704  0.09880617
   0.32659763  0.32437122  0.10019309
   0.68255193  0.00356155  0.10019337
   0.00344172  0.68038864  0.10019165
  -0.00028183  0.50007491  0.33381371
   0.16636757  0.33231550  0.33390918
   0.00000201  0.00001285  0.33356021
   0.16597648  0.83365026  0.33391678
   0.49990236  0.49962615  0.33382116
   0.66667433  0.33332774  0.33358995
   0.50035148  0.00028671  0.33381208
   0.66770485  0.83405814  0.33390775
Direct configuration=     7
   0.00421035  0.00289228  0.11529994
   0.35804084  0.00342577  0.09905324
   0.00334767  0.35591953  0.09905006
   0.65106090  0.64885723  0.09905546
   0.32684024  0.32450652  0.10020107
   0.68240645  0.00365204  0.10020717
   0.00334926  0.68015661  0.10020687
  -0.00017450  0.50005191  0.33383367
   0.16644221  0.33263071  0.33393458
   0.00000644  0.00001075  0.33355007
   0.16620722  0.83357133  0.33394322
   0.49993847  0.49976182  0.33384208
   0.66667214  0.33333055  0.33357060
   0.50022832  0.00018297  0.33383173
   0.66738464  0.83381733  0.33393290
Direct configuration=     8
   0.00422326  0.00294805  0.11352476
   0.35874814  0.00356840  0.09954751
   0.00311993  0.35646305  0.09954228
   0.65054368  0.64811761  0.09955403
   0.32732544  0.32477710  0.10021704
   0.68211549  0.00383301  0.10023479
   0.00316432  0.67969254  0.10023731
   0.00004017  0.50000591  0.33387358
   0.16659150  0.33326112  0.33398540
   0.00001531  0.00000654  0.33352980
   0.16666870  0.83341348  0.33399610
   0.50001070  0.50003315  0.33388393
   0.66666778  0.33333616  0.33353189
   0.49998201 -0.00002451  0.33387101
   0.66674423  0.83333571  0.33398322
Direct configuration=     9
   0.00424910  0.00305959  0.10997441
   0.36016274  0.00385367  0.10053605
   0.00266446  0.35755009  0.10052672
   0.64950922  0.64663838  0.10055119
   0.32829585  0.32531827  0.10024897
   0.68153357  0.00419496  0.10029002
   0.00279445  0.67876441  0.10029819
   0.00046951  0.49991390  0.33395341
   0.16689008  0.33452194  0.33408704
   0.00003304 -0.00000187  0.33348926
   0.16759165  0.83309778  0.33410186
   0.50015515  0.50057582  0.33396762
   0.66665905  0.33334739  0.33345449
   0.49948939 -0.00043947  0.33394959
   0.66546341  0.83237247  0.33408384
Direct configuration=    10
   0.00423302  0.00299019  0.11218345
   0.35928257  0.00367618  0.09992098
   0.00294786  0.35687373  0.09991420
   0.65015286  0.64755877  0.09993075
   0.32769206  0.32498155  0.10022910
   0.68189565  0.00396976  0.10025566
   0.00302459  0.67934190  0.10026031
   0.00020238  0.49997115  0.33390374
   0.16670430  0.33373745  0.33402380
   0.00002200  0.00000336  0.33351448
   0.16701738  0.83329421  0.33403605
   0.50006527  0.50023817  0.33391555
   0.66666448  0.33334040  0.33350265
   0.49979590 -0.00018128  0.33390070
   0.66626034  0.83297180  0.33402123
Direct configuration=    11
   0.00423088  0.00298265  0.11154588
   0.35931870  0.00365633  0.10001263
   0.00297639  0.35693838  0.10000582
   0.65009577  0.64752238  0.10002263
   0.32769433  0.32505272  0.10032026
   0.68182619  0.00389487  0.10034892
   0.00308051  0.67934093  0.10035383
   0.00014610  0.49998696  0.33391534
   0.16674696  0.33372056  0.33402183
   0.00001365  0.00000251  0.33355337
   0.16697357  0.83326191  0.33403360
   0.50004120  0.50017006  0.33392652
   0.66667202  0.33334161  0.33352059
   0.49985597 -0.00013196  0.33391218
   0.66628843  0.83302743  0.33401928
Direct configuration=    12
   0.00422444  0.00296001  0.10963314
   0.35942711  0.00359677  0.10028757
   0.00306199  0.35713232  0.10028068
   0.64992447  0.64741323  0.10029825
   0.32770114  0.32526625  0.10059375
   0.68161783  0.00367021  0.10062869
   0.00324830  0.67933801  0.10063439
  -0.00002272  0.50003438  0.33395012
   0.16687491  0.33366988  0.33401591
  -0.00001140 -0.00000003  0.33367001
   0.16684211  0.83316502  0.33402625
   0.49996898  0.49996574  0.33395943
   0.66669464  0.33334522  0.33357442
   0.50003616  0.00001603  0.33394662
   0.66637270  0.83319430  0.33401343
Direct configuration=    13
   0.00421157  0.00291474  0.10580768
   0.35964392  0.00347765  0.10083747
   0.00323319  0.35752022  0.10083039
   0.64958189  0.64719493  0.10084949
   0.32771478  0.32569329  0.10114072
   0.68120109  0.00322089  0.10118823
   0.00358386  0.67933218  0.10119551
  -0.00036036  0.50012922  0.33401970
   0.16713081  0.33356852  0.33400409
  -0.00006151 -0.00000513  0.33390330
   0.16657921  0.83297122  0.33401154
   0.49982454  0.49955709  0.33402526
   0.66673989  0.33335245  0.33368207
   0.50039654  0.00031200  0.33401551
   0.66654123  0.83352806  0.33400172
Direct configuration=    14
   0.00421044  0.00289712  0.10450719
   0.35946317  0.00333251  0.10098709
   0.00346409  0.35748634  0.10098165
   0.64955671  0.64740261  0.10099664
   0.32749356  0.32568740  0.10135414
   0.68120341  0.00305409  0.10139883
   0.00376504  0.67948490  0.10140490
   0.00029339  0.49986611  0.33401007
   0.16629577  0.33323957  0.33402368
   0.00010287  0.00002682  0.33398396
   0.16682747  0.83364273  0.33402893
   0.50025474  0.50038786  0.33401301
   0.66661085  0.33333300  0.33379459
   0.49972847 -0.00017966  0.33400603
   0.66669069  0.83310593  0.33402196
Direct configuration=    15
   0.00421076  0.00290222  0.10488344
   0.35951546  0.00337450  0.10094380
   0.00339729  0.35749614  0.10093789
   0.64956399  0.64734253  0.10095407
   0.32755756  0.32568911  0.10129239
   0.68120274  0.00310235  0.10133790
   0.00371262  0.67944071  0.10134432
   0.00010425  0.49994223  0.33401285
   0.16653736  0.33333474  0.33401801
   0.00005531  0.00001758  0.33396063
   0.16675565  0.83344845  0.33402390
   0.50013028  0.50014751  0.33401656
   0.66664818  0.33333862  0.33376204
   0.49992175 -0.00003742  0.33400877
   0.66664745  0.83322806  0.33401610
Direct configuration=    16
   0.00420557  0.00287990  0.10453203
   0.35934873  0.00326440  0.10098125
   0.00356813  0.35743227  0.10097700
   0.64956761  0.64753453  0.10098864
   0.32744738  0.32565219  0.10134279
   0.68124048  0.00308115  0.10138157
   0.00377689  0.67949957  0.10138627
   0.00012739  0.49999288  0.33399313
   0.16662762  0.33337645  0.33404226
   0.00000879  0.00000829  0.33397616
   0.16679168  0.83341510  0.33404708
   0.50002364  0.50015039  0.33399567
   0.66669775  0.33334840  0.33383828
   0.49986397 -0.00011443  0.33398960
   0.66666504  0.83324625  0.33404094
Direct configuration=    17
   0.00420256  0.00286697  0.10432848
   0.35925216  0.00320063  0.10100294
   0.00366709  0.35739527  0.10099966
   0.64956971  0.64764574  0.10100867
   0.32738356  0.32563080  0.10137198
   0.68126234  0.00306887  0.10140687
   0.00381411  0.67953366  0.10141056
   0.00014080  0.50002222  0.33398170
   0.16667990  0.33340061  0.33405631
  -0.00001817  0.00000292  0.33398515
   0.16681256  0.83339579  0.33406051
   0.49996187  0.50015206  0.33398358
   0.66672647  0.33335406  0.33388244
   0.49983050 -0.00015905  0.33397850
   0.66667523  0.83325679  0.33405532
Direct configuration=    18
   0.00417911  0.00279886  0.10398943
   0.35915476  0.00307382  0.10105311
   0.00385138  0.35743001  0.10105201
   0.64948576  0.64777147  0.10105469
   0.32742358  0.32571460  0.10139390
   0.68119735  0.00307423  0.10141781
   0.00385204  0.67947435  0.10141890
  -0.00001172  0.50003455  0.33398027
   0.16675006  0.33342662  0.33407720
   0.00003514  0.00001444  0.33400617
   0.16666687  0.83325745  0.33408053
   0.50002098  0.49994860  0.33398123
   0.66666556  0.33334279  0.33395266
   0.50010639  0.00006502  0.33397784
   0.66658339  0.83334052  0.33407693
Direct configuration=    19
   0.00418415  0.00281350  0.10406233
   0.35917570  0.00310109  0.10104232
   0.00381176  0.35742254  0.10104076
   0.64950381  0.64774444  0.10104480
   0.32741498  0.32569658  0.10138919
   0.68121132  0.00307307  0.10141546
   0.00384389  0.67948710  0.10141710
   0.00002107  0.50003190  0.33398057
   0.16673498  0.33342102  0.33407271
   0.00002368  0.00001197  0.33400165
   0.16669819  0.83328719  0.33407622
   0.50000827  0.49999235  0.33398174
   0.66667866  0.33334521  0.33393756
   0.50004707  0.00001685  0.33397798
   0.66660313  0.83332252  0.33407228
Direct configuration=    20
   0.00416195  0.00275431  0.10389474
   0.35921466  0.00305455  0.10108034
   0.00387613  0.35752043  0.10108005
   0.64939884  0.64771773  0.10108015
   0.32752027  0.32579414  0.10137429
   0.68113325  0.00309452  0.10139235
   0.00383530  0.67939939  0.10139216
  -0.00001257  0.49996511  0.33400542
   0.16666788  0.33339564  0.33407569
   0.00003367  0.00001453  0.33401991
   0.16672769  0.83334643  0.33407919
   0.50008735  0.50002082  0.33400662
   0.66666941  0.33334343  0.33395277
   0.50002994  0.00006075  0.33400334
   0.66661687  0.83328557  0.33407565
Direct configuration=    21
   0.00415000  0.00272248  0.10380459
   0.35923561  0.00302952  0.10110079
   0.00391076  0.35757309  0.10110119
   0.64934238  0.64770336  0.10109917
   0.32757691  0.32584662  0.10136628
   0.68109126  0.00310605  0.10137992
   0.00383068  0.67935220  0.10137874
  -0.00003067  0.49992918  0.33401878
   0.16663179  0.33338199  0.33407730
   0.00003905  0.00001590  0.33402973
   0.16674356  0.83337830  0.33408079
   0.50012989  0.50003613  0.33402001
   0.66666444  0.33334247  0.33396095
   0.50002073  0.00008436  0.33401697
   0.66662427  0.83326569  0.33407746
Direct configuration=    22
   0.00413916  0.00269337  0.10365486
   0.35927552  0.00302356  0.10113424
   0.00393080  0.35762344  0.10113564
   0.64928202  0.64767184  0.10113039
   0.32758326  0.32583831  0.10134588
   0.68110674  0.00313186  0.10135193
   0.00381440  0.67934742  0.10134910
   0.00003189  0.49997390  0.33404861
   0.16666632  0.33339276  0.33408308
   0.00001382  0.00001075  0.33404426
   0.16676775  0.83337669  0.33408683
   0.50005311  0.50007153  0.33405027
   0.66669418  0.33334841  0.33396685
   0.49995378 -0.00000888  0.33404722
   0.66664793  0.83327237  0.33408351
Direct configuration=    23
   0.00413221  0.00267473  0.10355896
   0.35930108  0.00301975  0.10115566
   0.00394365  0.35765569  0.10115771
   0.64924337  0.64765165  0.10115040
   0.32758732  0.32583298  0.10133282
   0.68111665  0.00314840  0.10133400
   0.00380396  0.67934435  0.10133012
   0.00007196  0.50000255  0.33406771
   0.16668844  0.33339966  0.33408678
  -0.00000234  0.00000746  0.33405357
   0.16678324  0.83337567  0.33409070
   0.50000394  0.50009420  0.33406965
   0.66671322  0.33335221  0.33397063
   0.49991089 -0.00006861  0.33406659
   0.66666308  0.83327665  0.33408739
Direct configuration=    24
   0.00413674  0.00268604  0.10340369
   0.35931844  0.00305460  0.10117934
   0.00392005  0.35763182  0.10118206
   0.64925030  0.64763748  0.10117244
   0.32749450  0.32572957  0.10131533
   0.68121171  0.00316881  0.10130987
   0.00379004  0.67941502  0.10130460
   0.00009043  0.50004240  0.33409439
   0.16670673  0.33340475  0.33410472
   0.00002203  0.00001273  0.33406129
   0.16672516  0.83332814  0.33410901
   0.49999453  0.50005607  0.33409705
   0.66668889  0.33334864  0.33397994
   0.49997941 -0.00005534  0.33409351
   0.66663170  0.83330661  0.33410543
Direct configuration=    25
   0.00413955  0.00269305  0.10330730
   0.35932921  0.00307624  0.10119404
   0.00390540  0.35761700  0.10119717
   0.64925461  0.64762868  0.10118613
   0.32743688  0.32566537  0.10130447
   0.68127072  0.00318147  0.10129488
   0.00378140  0.67945890  0.10128877
   0.00010190  0.50006715  0.33411095
   0.16671809  0.33340791  0.33411587
   0.00003716  0.00001600  0.33406608
   0.16668910  0.83329863  0.33412037
   0.49998869  0.50003240  0.33411406
   0.66667378  0.33334642  0.33398571
   0.50002195 -0.00004710  0.33411022
   0.66661221  0.83332521  0.33411664
Direct configuration=    26
   0.00414999  0.00272204  0.10312601
   0.35934475  0.00313394  0.10120353
   0.00384446  0.35756774  0.10120687
   0.64929760  0.64760703  0.10119476
   0.32738843  0.32561284  0.10129415
   0.68131054  0.00318267  0.10127928
   0.00377344  0.67948884  0.10127213
   0.00001489  0.49998879  0.33413277
   0.16668496  0.33340024  0.33414979
   0.00002971  0.00001562  0.33407173
   0.16673455  0.83334527  0.33415464
   0.50005935  0.50003024  0.33413664
   0.66668232  0.33334803  0.33400778
   0.50001627  0.00003011  0.33413209
   0.66662943  0.83329394  0.33415050
Direct configuration=    27
   0.00415578  0.00273815  0.10302527
   0.35935338  0.00316601  0.10120879
   0.00381060  0.35754037  0.10121226
   0.64932149  0.64759499  0.10119955
   0.32736150  0.32558365  0.10128841
   0.68133266  0.00318333  0.10127061
   0.00376902  0.67950548  0.10126289
  -0.00003347  0.49994525  0.33414490
   0.16666655  0.33339598  0.33416865
   0.00002556  0.00001540  0.33407486
   0.16675981  0.83337118  0.33417368
   0.50009861  0.50002904  0.33414919
   0.66668707  0.33334892  0.33402004
   0.50001311  0.00007301  0.33414425
   0.66663900  0.83327656  0.33416932
Direct configuration=    28
   0.00415994  0.00275282  0.10287151
   0.35936986  0.00320385  0.10120702
   0.00375640  0.35751898  0.10121033
   0.64935412  0.64756823  0.10119772
   0.32740169  0.32562295  0.10128462
   0.68128824  0.00316994  0.10126419
   0.00376635  0.67947004  0.10125600
  -0.00001882  0.49994758  0.33416167
   0.16666810  0.33339815  0.33419915
   0.00001789  0.00001400  0.33408576
   0.16677822  0.83338244  0.33420427
   0.50008717  0.50004831  0.33416634
   0.66669767  0.33335099  0.33404351
   0.49998488  0.00004892  0.33416091
   0.66664895  0.83327013  0.33419969
Direct configuration=    29
   0.00417223  0.00279614  0.10241747
   0.35941854  0.00331561  0.10120176
   0.00359634  0.35745584  0.10120465
   0.64945049  0.64748920  0.10119232
   0.32752035  0.32573900  0.10127343
   0.68115709  0.00313041  0.10124523
   0.00375847  0.67936536  0.10123567
   0.00002445  0.49995446  0.33421118
   0.16667269  0.33340455  0.33428920
  -0.00000478  0.00000986  0.33411792
   0.16683258  0.83341568  0.33429459
   0.50005337  0.50010521  0.33421697
   0.66672896  0.33335709  0.33411279
   0.49990155 -0.00002221  0.33421012
   0.66667833  0.83325114  0.33428936
Direct configuration=    30
   0.00417034  0.00279833  0.10221372
   0.35941628  0.00332132  0.10119514
   0.00356328  0.35745091  0.10119758
   0.64947745  0.64747933  0.10118629
   0.32756153  0.32577868  0.10126539
   0.68111551  0.00311192  0.10123637
   0.00375778  0.67934367  0.10122679
   0.00008329  0.50002689  0.33424294
   0.16669116  0.33340141  0.33431852
   0.00003578  0.00001870  0.33415529
   0.16673679  0.83334926  0.33432361
   0.50003051  0.50006321  0.33424863
   0.66668967  0.33335189  0.33414234
   0.49999243 -0.00002870  0.33424159
   0.66663888  0.83330053  0.33431848
Direct configuration=    31
   0.00416977  0.00279899  0.10215237
   0.35941560  0.00332304  0.10119314
   0.00355332  0.35744942  0.10119545
   0.64948556  0.64747635  0.10118448
   0.32757393  0.32579062  0.10126296
   0.68110299  0.00310636  0.10123370
   0.00375757  0.67933714  0.10122412
   0.00010100  0.50004870  0.33425250
   0.16669673  0.33340046  0.33432735
   0.00004799  0.00002137  0.33416654
   0.16670795  0.83332926  0.33433235
   0.50002362  0.50005056  0.33425817
   0.66667784  0.33335032  0.33415123
   0.50001979 -0.00003066  0.33425106
   0.66662701  0.83331540  0.33432725
Direct configuration=    32
   0.00416524  0.00279251  0.10201745
   0.35938857  0.00328196  0.10118771
   0.00357979  0.35746362  0.10118958
   0.64947970  0.64749931  0.10118004
   0.32755427  0.32577013  0.10125017
   0.68112293  0.00310175  0.10122314
   0.00375960  0.67936710  0.10121410
   0.00006800  0.50003830  0.33428271
   0.16670744  0.33340086  0.33433716
   0.00004413  0.00002185  0.33421252
   0.16670776  0.83332550  0.33434164
   0.50003012  0.50003013  0.33428780
   0.66668301  0.33335220  0.33417065
   0.50003615 -0.00000108  0.33428104
   0.66663395  0.83332318  0.33433695
Direct configuration=    33
   0.00415653  0.00278004  0.10175755
   0.35933650  0.00320284  0.10117725
   0.00363077  0.35749098  0.10117825
   0.64946840  0.64754353  0.10117151
   0.32751641  0.32573065  0.10122551
   0.68116133  0.00309286  0.10120280
   0.00376353  0.67942482  0.10119479
   0.00000442  0.50001827  0.33434092
   0.16672808  0.33340164  0.33435608
   0.00003670  0.00002279  0.33430110
   0.16670739  0.83331825  0.33435953
   0.50004265  0.49999079  0.33434488
   0.66669297  0.33335581  0.33420804
   0.50006765  0.00005589  0.33433880
   0.66664734  0.83333818  0.33435564
Direct configuration=    34
   0.00415769  0.00278610  0.10159865
   0.35931576  0.00313447  0.10117358
   0.00370434  0.35753038  0.10117404
   0.64940693  0.64756397  0.10116934
   0.32748776  0.32570743  0.10119541
   0.68117917  0.00310227  0.10117820
   0.00376989  0.67943339  0.10117138
   0.00004810  0.49998218  0.33437147
   0.16668412  0.33340820  0.33437923
   0.00002373  0.00001874  0.33435232
   0.16679135  0.83338718  0.33438206
   0.50006235  0.50008709  0.33437457
   0.66671275  0.33335773  0.33424457
   0.49995687 -0.00000742  0.33436914
   0.66665986  0.83327564  0.33437872
Direct configuration=    35
   0.00415765  0.00278588  0.10160438
   0.35931651  0.00313694  0.10117371
   0.00370168  0.35752896  0.10117419
   0.64940915  0.64756323  0.10116941
   0.32748880  0.32570827  0.10119649
   0.68117852  0.00310193  0.10117909
   0.00376966  0.67943308  0.10117222
   0.00004652  0.49998348  0.33437037
   0.16668571  0.33340796  0.33437839
   0.00002420  0.00001889  0.33435047
   0.16678832  0.83338469  0.33438125
   0.50006164  0.50008361  0.33437350
   0.66671204  0.33335766  0.33424325
   0.49996087 -0.00000513  0.33436805
   0.66665941  0.83327789  0.33437788
Direct configuration=    36
   0.00415975  0.00279081  0.10150062
   0.35931589  0.00308990  0.10117294
   0.00376880  0.35756830  0.10117314
   0.64933771  0.64756739  0.10116973
   0.32748472  0.32571363  0.10116323
   0.68116938  0.00311365  0.10115157
   0.00377601  0.67940835  0.10114588
   0.00009348  0.50001031  0.33438423
   0.16667904  0.33340382  0.33440889
   0.00003905  0.00002138  0.33437374
   0.16676705  0.83337685  0.33441156
   0.50005373  0.50009585  0.33438684
   0.66669966  0.33335574  0.33428002
   0.49996670 -0.00003387  0.33438186
   0.66664970  0.83328524  0.33440841
Direct configuration=    37
   0.00416119  0.00279420  0.10142927
   0.35931546  0.00305755  0.10117242
   0.00381496  0.35759536  0.10117242
   0.64928858  0.64757026  0.10116995
   0.32748192  0.32571732  0.10114035
   0.68116310  0.00312171  0.10113264
   0.00378038  0.67939134  0.10112777
   0.00012577  0.50002875  0.33439377
   0.16667445  0.33340097  0.33442986
   0.00004926  0.00002309  0.33438973
   0.16675242  0.83337145  0.33443240
   0.50004830  0.50010426  0.33439602
   0.66669114  0.33335442  0.33430530
   0.49997071 -0.00005364  0.33439136
   0.66664302  0.83329030  0.33442941
Direct configuration=    38
   0.00415105  0.00276774  0.10132973
   0.35930577  0.00303132  0.10116782
   0.00385795  0.35761806  0.10116771
   0.64925582  0.64758680  0.10116623
   0.32748381  0.32572845  0.10110176
   0.68115646  0.00312025  0.10110045
   0.00378346  0.67938759  0.10109691
   0.00002665  0.50001884  0.33441147
   0.16672714  0.33340220  0.33446626
   0.00003130  0.00002313  0.33440623
   0.16673560  0.83334053  0.33446905
   0.50003796  0.50002292  0.33441355
   0.66670939  0.33336031  0.33434040
   0.50003125  0.00002811  0.33440918
   0.66666705  0.83333108  0.33446590
Direct configuration=    39
   0.00415276  0.00277219  0.10134649
   0.35930740  0.00303574  0.10116859
   0.00385071  0.35761424  0.10116851
   0.64926134  0.64758401  0.10116686
   0.32748349  0.32572658  0.10110826
   0.68115758  0.00312050  0.10110587
   0.00378294  0.67938822  0.10110211
   0.00004334  0.50002051  0.33440849
   0.16671826  0.33340199  0.33446013
   0.00003433  0.00002312  0.33440345
   0.16673843  0.83334574  0.33446288
   0.50003970  0.50003662  0.33441060
   0.66670632  0.33335932  0.33433449
   0.50002105  0.00001434  0.33440618
   0.66666300  0.83332422  0.33445976
Direct configuration=    40
   0.00413961  0.00273897  0.10129064
   0.35929543  0.00304736  0.10115920
   0.00384369  0.35760228  0.10115921
   0.64928410  0.64760105  0.10115767
   0.32748089  0.32572919  0.10108407
   0.68116174  0.00310958  0.10108537
   0.00378254  0.67940753  0.10108235
   0.00002127  0.49999442  0.33442825
   0.16670929  0.33340962  0.33448126
   0.00003342  0.00002385  0.33441348
   0.16676089  0.83335981  0.33448457
   0.50006382  0.50004251  0.33443057
   0.66670991  0.33336050  0.33434885
   0.50001489  0.00003517  0.33442612
   0.66665919  0.83330547  0.33448104
Direct configuration=    41
   0.00412885  0.00271178  0.10124493
   0.35928563  0.00305688  0.10115152
   0.00383794  0.35759248  0.10115161
   0.64930273  0.64761500  0.10115016
   0.32747876  0.32573133  0.10106426
   0.68116515  0.00310065  0.10106858
   0.00378221  0.67942334  0.10106617
   0.00000319  0.49997308  0.33444443
   0.16670194  0.33341587  0.33449856
   0.00003267  0.00002445  0.33442169
   0.16677927  0.83337134  0.33450233
   0.50008357  0.50004734  0.33444692
   0.66671284  0.33336147  0.33436060
   0.50000984  0.00005223  0.33444245
   0.66665608  0.83329012  0.33449845
Direct configuration=    42
   0.00412500  0.00270225  0.10121054
   0.35928597  0.00307295  0.10114262
   0.00382599  0.35757982  0.10114281
   0.64931526  0.64761644  0.10114126
   0.32747656  0.32573323  0.10104997
   0.68116404  0.00309666  0.10105626
   0.00378279  0.67942639  0.10105424
   0.00002968  0.49998571  0.33445977
   0.16669752  0.33341452  0.33451071
   0.00003818  0.00002517  0.33443025
   0.16677462  0.83337149  0.33451484
   0.50007825  0.50005899  0.33446243
   0.66670886  0.33336078  0.33436835
   0.50000502  0.00003237  0.33445791
   0.66665293  0.83329058  0.33451070
Direct configuration=    43
   0.00411346  0.00267366  0.10110738
   0.35928699  0.00312115  0.10111594
   0.00379016  0.35754183  0.10111641
   0.64935287  0.64762073  0.10111458
   0.32746995  0.32573893  0.10100708
   0.68116071  0.00308470  0.10101929
   0.00378450  0.67943554  0.10101845
   0.00010912  0.50002360  0.33450579
   0.16668428  0.33341050  0.33454714
   0.00005470  0.00002736  0.33445593
   0.16676065  0.83337195  0.33455238
   0.50006230  0.50009394  0.33450897
   0.66669691  0.33335872  0.33439158
   0.49999055 -0.00002722  0.33450431
   0.66664350  0.83329194  0.33454745
Direct configuration=    44
   0.00411712  0.00268392  0.10106125
   0.35930164  0.00314475  0.10109978
   0.00377262  0.35752817  0.10110040
   0.64935247  0.64760476  0.10109829
   0.32746821  0.32574178  0.10098919
   0.68115245  0.00308717  0.10100324
   0.00378574  0.67942045  0.10100275
   0.00010213  0.50003377  0.33452765
   0.16669973  0.33340617  0.33456337
   0.00004879  0.00002702  0.33447175
   0.16675429  0.83336539  0.33456895
   0.50004647  0.50008086  0.33453099
   0.66670433  0.33336072  0.33440494
   0.49999693 -0.00002594  0.33452631
   0.66665775  0.83330833  0.33456381
Direct configuration=    45
   0.00412466  0.00270509  0.10096610
   0.35933188  0.00319344  0.10106646
   0.00373645  0.35750001  0.10106737
   0.64935163  0.64757182  0.10106470
   0.32746460  0.32574765  0.10095228
   0.68113543  0.00309226  0.10097012
   0.00378829  0.67938934  0.10097036
   0.00008770  0.50005473  0.33457274
   0.16673159  0.33339724  0.33459684
   0.00003660  0.00002632  0.33450438
   0.16674117  0.83335186  0.33460314
   0.50001381  0.50005389  0.33457642
   0.66671962  0.33336484  0.33443249
   0.50001008 -0.00002329  0.33457171
   0.66668717  0.83334212  0.33459757
Direct configuration=    46
   0.00412796  0.00271434  0.10092449
   0.35934510  0.00321473  0.10105188
   0.00372063  0.35748770  0.10105293
   0.64935126  0.64755742  0.10105001
   0.32746302  0.32575022  0.10093614
   0.68112798  0.00309448  0.10095563
   0.00378940  0.67937574  0.10095621
   0.00008139  0.50006390  0.33459245
   0.16674552  0.33339333  0.33461148
   0.00003127  0.00002602  0.33451865
   0.16673543  0.83334595  0.33461809
   0.49999953  0.50004209  0.33459628
   0.66672631  0.33336665  0.33444454
   0.50001583 -0.00002213  0.33459155
   0.66670003  0.83335690  0.33461233
Direct configuration=    47
   0.00413049  0.00272244  0.10088731
   0.35935543  0.00322681  0.10103744
   0.00370907  0.35748223  0.10103858
   0.64934823  0.64754454  0.10103543
   0.32746170  0.32574976  0.10092181
   0.68112442  0.00309713  0.10094228
   0.00378884  0.67936697  0.10094304
   0.00007216  0.50005534  0.33460909
   0.16674258  0.33339524  0.33462565
   0.00003336  0.00002710  0.33453307
   0.16673938  0.83334907  0.33463241
   0.50001051  0.50004080  0.33461296
   0.66672619  0.33336720  0.33445873
   0.50002008 -0.00001011  0.33460828
   0.66669822  0.83335283  0.33462659
Direct configuration=    48
   0.00413807  0.00274673  0.10077578
   0.35938643  0.00326304  0.10099410
   0.00367439  0.35746582  0.10099555
   0.64933912  0.64750590  0.10099168
   0.32745776  0.32574836  0.10087882
   0.68111372  0.00310508  0.10090220
   0.00378716  0.67934068  0.10090354
   0.00004446  0.50002964  0.33465900
   0.16673376  0.33340095  0.33466816
   0.00003964  0.00003035  0.33457634
   0.16675124  0.83335845  0.33467537
   0.50004343  0.50003693  0.33466300
   0.66672583  0.33336885  0.33450128
   0.50003286  0.00002594  0.33465844
   0.66669280  0.83334063  0.33466938
Direct configuration=    49
   0.00415323  0.00279530  0.10055273
   0.35944841  0.00333552  0.10090742
   0.00360502  0.35743301  0.10090949
   0.64932090  0.64742862  0.10090418
   0.32744987  0.32574556  0.10079284
   0.68109234  0.00312097  0.10082205
   0.00378380  0.67928809  0.10082454
  -0.00001094  0.49997825  0.33475882
   0.16671613  0.33341237  0.33475320
   0.00005220  0.00003685  0.33466289
   0.16677497  0.83337722  0.33476130
   0.50010928  0.50002918  0.33476308
   0.66672510  0.33337215  0.33458638
   0.50005841  0.00009803  0.33475877
   0.66668196  0.83331622  0.33475496
Direct configuration=    50
   0.00414504  0.00276905  0.10067326
   0.35941492  0.00329635  0.10095426
   0.00364250  0.35745074  0.10095599
   0.64933075  0.64747037  0.10095146
   0.32745413  0.32574707  0.10083930
   0.68110389  0.00311238  0.10086536
   0.00378562  0.67931650  0.10086723
   0.00001899  0.50000602  0.33470488
   0.16672566  0.33340620  0.33470725
   0.00004541  0.00003334  0.33461612
   0.16676215  0.83336708  0.33471487
   0.50007370  0.50003337  0.33470900