Lattice                                 
           1
     4.243524    2.450000    0.000000
    -4.243524    2.450000    0.000000
     0.000000    0.000000   15.000000
   B    C 
     4    11
Direct configuration=     1
   0.00415361  0.00267210  0.12034134
   0.35695335  0.00285503  0.09748893
   0.00423858  0.35550699  0.09749256
   0.65142295  0.65006557  0.09747688
   0.32808646  0.32671938  0.10030508
   0.68027775  0.00278085  0.10027562
   0.00416530  0.67883808  0.10026559
   0.99999933  0.49999967  0.33373333
   0.16666633  0.33333267  0.33373333
   0.99999933  0.99999967  0.33373333
   0.16666633  0.83333267  0.33373333
   0.49999933  0.49999967  0.33373333
   0.66666633  0.33333267  0.33373333
   0.49999933  0.99999967  0.33373333
   0.66666633  0.83333267  0.33373333
Direct configuration=     2
   0.00417687  0.00274179  0.11891018
   0.35551000  0.00304879  0.09792043
   0.00395417  0.35382763  0.09792233
   0.65309616  0.65147167  0.09791205
   0.32372308  0.32200212  0.10030046
   0.68495796  0.00311714  0.10027993
   0.00386983  0.68322221  0.10027293
   0.00012594  0.49996597  0.33374521
   0.16685576  0.33393010  0.33380912
   0.99999979  0.99999424  0.33363874
   0.16706739  0.83314213  0.33381205
   0.50004900  0.50017288  0.33374811
   0.66666660  0.33333797  0.33368774
   0.49984127  0.99987180  0.33374469
   0.66606683  0.83292090  0.33380871
Direct configuration=     3
   0.00416556  0.00270790  0.11960608
   0.35621183  0.00295458  0.09771062
   0.00409246  0.35464421  0.09771336
   0.65228257  0.65078796  0.09770045
   0.32584476  0.32429587  0.10030270
   0.68268222  0.00295362  0.10027783
   0.00401350  0.68109044  0.10026936
   0.00006438  0.49998236  0.33373943
   0.16676365  0.33363960  0.33377227
   0.99999957  0.99999688  0.33368474
   0.16687238  0.83323478  0.33377377
   0.50002485  0.50008866  0.33374092
   0.66666647  0.33333539  0.33370991
   0.49991813  0.99993397  0.33373917
   0.66635834  0.83312112  0.33377206
Direct configuration=     4
   0.00417792  0.00275829  0.11846106
   0.35667007  0.00309028  0.09807948
   0.00388245  0.35494325  0.09808060
   0.65199566  0.65030222  0.09807266
   0.32605144  0.32427640  0.10026375
   0.68268421  0.00315788  0.10024713
   0.00382191  0.68090008  0.10024090
  -0.00006699  0.50002009  0.33376396
   0.16661671  0.33313707  0.33381768
   0.99999985  0.00000267  0.33364539
   0.16652908  0.83338896  0.33382117
   0.49997505  0.49991053  0.33376739
   0.66666945  0.33333240  0.33367121
   0.50008446  0.00006721  0.33376325
   0.66686940  0.83348000  0.33381705
Direct configuration=     5
   0.00420209  0.00285689  0.11622028
   0.35756685  0.00335584  0.09880133
   0.00347147  0.35552846  0.09879929
   0.65143420  0.64935165  0.09880106
   0.32645590  0.32423828  0.10018753
   0.68268810  0.00355761  0.10018704
   0.00344697  0.68052756  0.10018519
  -0.00032407  0.50009394  0.33381195
   0.16632915  0.33215363  0.33390654
   0.00000040  0.00001401  0.33356838
   0.16585725  0.83369070  0.33391392
   0.49987758  0.49956195  0.33381920
   0.66667529  0.33332654  0.33359547
   0.50040998  0.00032796  0.33381037
   0.66786953  0.83418232  0.33390511
Direct configuration=     6
   0.00420424  0.00286612  0.11590779
   0.35768873  0.00338101  0.09888737
   0.00343219  0.35562171  0.09888499
   0.65134535  0.64922440  0.09888782
   0.32654207  0.32428781  0.10019115
   0.68263519  0.00358864  0.10019264
   0.00341522  0.68044486  0.10019128
  -0.00028687  0.50008463  0.33381890
   0.16635643  0.33226835  0.33391515
   0.00000195  0.00001324  0.33356595
   0.16594118  0.83366187  0.33392288
   0.49989157  0.49961042  0.33382645
   0.66667449  0.33332753  0.33358944
   0.50036598  0.00029198  0.33381721
   0.66775294  0.83409474  0.33391364
Direct configuration=     7
   0.00421067  0.00289382  0.11497031
   0.35805440  0.00345654  0.09914549
   0.00331437  0.35590147  0.09914207
   0.65107883  0.64884266  0.09914811
   0.32680061  0.32443641  0.10020201
   0.68247646  0.00368175  0.10020946
   0.00331996  0.68019677  0.10020953
  -0.00017527  0.50005671  0.33383974
   0.16643827  0.33261251  0.33394101
   0.00000662  0.00001094  0.33355868
   0.16619298  0.83357539  0.33394973
   0.49993352  0.49975584  0.33384823
   0.66667208  0.33333049  0.33357134
   0.50023399  0.00018405  0.33383773
   0.66740317  0.83383198  0.33393924
Direct configuration=     8
   0.00422353  0.00294922  0.11309536
   0.35878572  0.00360758  0.09966173
   0.00307873  0.35646100  0.09965622
   0.65054577  0.64807918  0.09966869
   0.32731767  0.32473361  0.10022374
   0.68215901  0.00386796  0.10024309
   0.00312945  0.67970060  0.10024603
   0.00004795  0.50000085  0.33388141
   0.16660195  0.33330083  0.33399271
   0.00001596  0.00000634  0.33354413
   0.16669657  0.83340242  0.33400345
   0.50001743  0.50004666  0.33389177
   0.66666727  0.33333642  0.33353514
   0.49997002 -0.00003182  0.33387877
   0.66670364  0.83330647  0.33399042
Direct configuration=     9
   0.00424926  0.00306002  0.10934545
   0.36024837  0.00390968  0.10069420
   0.00260746  0.35758005  0.10068453
   0.64947966  0.64655222  0.10070985
   0.32835179  0.32532801  0.10026719
   0.68152412  0.00424038  0.10031035
   0.00274842  0.67870825  0.10031905
   0.00049438  0.49988915  0.33396476
   0.16692930  0.33467746  0.33409612
   0.00003464 -0.00000287  0.33351503
   0.16770376  0.83305649  0.33411088
   0.50018524  0.50062831  0.33397887
   0.66665764  0.33334828  0.33346275
   0.49944207 -0.00046356  0.33396084
   0.66530457  0.83225545  0.33409280
Direct configuration=    10
   0.00423232  0.00298708  0.11181396
   0.35928553  0.00371082  0.10001454
   0.00291769  0.35684339  0.10000761
   0.65018147  0.64755740  0.10002447
   0.32767104  0.32493673  0.10023859
   0.68194206  0.00399522  0.10026607
   0.00299924  0.67936150  0.10027098
   0.00020050  0.49996268  0.33390989
   0.16671381  0.33377124  0.33402805
   0.00002235  0.00000319  0.33353419
   0.16704074  0.83328422  0.33404016
   0.50007477  0.50024542  0.33392153
   0.66666398  0.33334047  0.33351041
   0.49978961 -0.00017935  0.33390681
   0.66622555  0.83294733  0.33402541
Direct configuration=    11
   0.00423034  0.00297999  0.11115246
   0.35933791  0.00369458  0.10010869
   0.00294201  0.35692048  0.10010175
   0.65011216  0.64750470  0.10011883
   0.32767240  0.32500298  0.10033357
   0.68187715  0.00392425  0.10036311
   0.00305165  0.67936136  0.10036827
   0.00014840  0.49998045  0.33392163
   0.16675348  0.33374848  0.33402672
   0.00001387  0.00000232  0.33357419
   0.16699413  0.83325497  0.33403834
   0.50004849  0.50017948  0.33393262
   0.66667167  0.33334174  0.33352996
   0.49984726 -0.00013433  0.33391843
   0.66625972  0.83300587  0.33402411
Direct configuration=    12
   0.00422438  0.00295872  0.10916795
   0.35949506  0.00364588  0.10039115
   0.00301496  0.35715172  0.10038417
   0.64990426  0.64734662  0.10040190
   0.32767647  0.32520176  0.10061852
   0.68168242  0.00371135  0.10065422
   0.00320888  0.67936094  0.10066011
  -0.00000789  0.50003375  0.33395683
   0.16687249  0.33368021  0.33402275
  -0.00001155 -0.00000030  0.33369420
   0.16685430  0.83316725  0.33403286
   0.49996966  0.49998166  0.33396586
   0.66669477  0.33334556  0.33358862
   0.50002021  0.00000072  0.33395329
   0.66636223  0.83318151  0.33402023
Direct configuration=    13
   0.00421247  0.00291618  0.10519893
   0.35980936  0.00354849  0.10095607
   0.00316087  0.35761421  0.10094902
   0.64948846  0.64703046  0.10096805
   0.32768460  0.32559931  0.10118841
   0.68129296  0.00328553  0.10123643
   0.00352333  0.67936010  0.10124380
  -0.00032048  0.50014034  0.33402725
   0.16711050  0.33354365  0.33401481
  -0.00006239 -0.00000555  0.33393422
   0.16657464  0.83299180  0.33402191
   0.49981200  0.49958601  0.33403234
   0.66674096  0.33335319  0.33370595
   0.50036612  0.00027084  0.33402301
   0.66656725  0.83353278  0.33401247
Direct configuration=    14
   0.00421155  0.00290071  0.10403346
   0.35956913  0.00340408  0.10108701
   0.00338646  0.35751740  0.10108159
   0.64952485  0.64729613  0.10109641
   0.32741716  0.32553267  0.10137985
   0.68135736  0.00313283  0.10142432
   0.00369341  0.67956260  0.10143036
   0.00027686  0.49986149  0.33401697
   0.16630422  0.33325078  0.33403714
   0.00010379  0.00002712  0.33400182
   0.16682792  0.83363232  0.33404225
   0.50026036  0.50037586  0.33401972
   0.66660915  0.33333225  0.33381338
   0.49974152 -0.00016224  0.33401294
   0.66667693  0.83310334  0.33403545
Direct configuration=    15
   0.00421181  0.00290516  0.10436853
   0.35963819  0.00344560  0.10104936
   0.00332160  0.35754523  0.10104348
   0.64951439  0.64721975  0.10105951
   0.32749405  0.32555183  0.10132481
   0.68133884  0.00317673  0.10137030
   0.00364451  0.67950438  0.10137673
   0.00010513  0.49994166  0.33401993
   0.16653602  0.33333498  0.33403072
   0.00005601  0.00001773  0.33398238
   0.16675510  0.83344817  0.33403640
   0.50013146  0.50014878  0.33402335
   0.66664704  0.33333827  0.33378249
   0.49992109 -0.00003773  0.33401583
   0.66664539  0.83322680  0.33402885
Direct configuration=    16
   0.00420628  0.00288235  0.10405640
   0.35940778  0.00332471  0.10108082
   0.00350230  0.35742896  0.10107658
   0.64957193  0.64747454  0.10108807
   0.32736459  0.32550734  0.10136857
   0.68138569  0.00314179  0.10140713
   0.00371965  0.67958571  0.10141180
   0.00011039  0.49998657  0.33400280
   0.16663318  0.33338276  0.33405498
   0.00000770  0.00000797  0.33399327
   0.16679294  0.83340975  0.33405973
   0.50002881  0.50014004  0.33400521
   0.66669763  0.33334823  0.33385436
   0.49987313 -0.00009869  0.33399927
   0.66665867  0.83324532  0.33405369
Direct configuration=    17
   0.00420358  0.00287123  0.10390420
   0.35929543  0.00326576  0.10109615
   0.00359042  0.35737227  0.10109272
   0.64959999  0.64759878  0.10110200
   0.32730146  0.32548564  0.10138991
   0.68140854  0.00312475  0.10142508
   0.00375629  0.67962536  0.10142890
   0.00011295  0.50000847  0.33399444
   0.16668056  0.33340606  0.33406681
  -0.00001587  0.00000320  0.33399858
   0.16681139  0.83339101  0.33407110
   0.49997875  0.50013577  0.33399636
   0.66672230  0.33335309  0.33388940
   0.49984975 -0.00012841  0.33399120
   0.66666514  0.83325435  0.33406581
Direct configuration=    18
   0.00418284  0.00281063  0.10366496
   0.35918071  0.00314220  0.10113058
   0.00376247  0.35738773  0.10112899
   0.64954699  0.64773792  0.10113283
   0.32736296  0.32559951  0.10139999
   0.68131133  0.00311159  0.10142542
   0.00380238  0.67955031  0.10142692
  -0.00000448  0.50002920  0.33399778
   0.16673366  0.33341594  0.33408368
   0.00003605  0.00001455  0.33401292
   0.16666945  0.83327133  0.33408736
   0.50002713  0.49996075  0.33399909
   0.66666349  0.33334226  0.33394363
   0.50009449  0.00005800  0.33399521
   0.66659120  0.83333541  0.33408329
Direct configuration=    19
   0.00418680  0.00282220  0.10371066
   0.35920262  0.00316580  0.10112401
   0.00372961  0.35738478  0.10112206
   0.64955711  0.64771134  0.10112694
   0.32735121  0.32557776  0.10139806
   0.68132990  0.00311410  0.10142536
   0.00379358  0.67956465  0.10142730
   0.00001795  0.50002524  0.33399715
   0.16672352  0.33341405  0.33408046
   0.00002613  0.00001239  0.33401018
   0.16669656  0.83329419  0.33408425
   0.50001789  0.49999418  0.33399857
   0.66667472  0.33334433  0.33393327
   0.50004774  0.00002239  0.33399445
   0.66660532  0.83331992  0.33407995
Direct configuration=    20
   0.00416733  0.00276857  0.10357948
   0.35922537  0.00310520  0.10115126
   0.00381196  0.35747903  0.10115058
   0.64945264  0.64770193  0.10115159
   0.32745588  0.32569277  0.10138292
   0.68123135  0.00312000  0.10140221
   0.00380154  0.67947004  0.10140233
   0.00000020  0.49997510  0.33401984
   0.16667191  0.33339432  0.33408475
   0.00002941  0.00001349  0.33402546
   0.16672745  0.83334561  0.33408852
   0.50007167  0.50002615  0.33402133
   0.66667278  0.33334387  0.33395012
   0.50001925  0.00004259  0.33401765
   0.66662192  0.83328865  0.33408462
Direct configuration=    21
   0.00415750  0.00274150  0.10351328
   0.35923685  0.00307461  0.10116502
   0.00385352  0.35752660  0.10116497
   0.64939992  0.64769719  0.10116403
   0.32750871  0.32575082  0.10137528
   0.68118160  0.00312297  0.10139053
   0.00380556  0.67942229  0.10138973
  -0.00000875  0.49994980  0.33403130
   0.16664587  0.33338437  0.33408691
   0.00003106  0.00001404  0.33403317
   0.16674304  0.83337157  0.33409067
   0.50009881  0.50004229  0.33403281
   0.66667181  0.33334364  0.33395862
   0.50000487  0.00005279  0.33402937
   0.66663031  0.83327286  0.33408697
Direct configuration=    22
   0.00414655  0.00271077  0.10336749
   0.35927350  0.00305453  0.10119201
   0.00389512  0.35758685  0.10119319
   0.64932250  0.64767150  0.10118836
   0.32748191  0.32572295  0.10135130
   0.68121640  0.00314109  0.10135741
   0.00380103  0.67944408  0.10135459
   0.00006405  0.50000200  0.33406498
   0.16668685  0.33340150  0.33409623
   0.00000460  0.00000857  0.33404941
   0.16676985  0.83336554  0.33410026
   0.50001285  0.50008121  0.33406700
   0.66670343  0.33335027  0.33397029
   0.49993207 -0.00005235  0.33406355
   0.66664997  0.83327881  0.33409661
Direct configuration=    23
   0.00414267  0.00269991  0.10331593
   0.35928647  0.00304742  0.10120155
   0.00390983  0.35760816  0.10120317
   0.64929512  0.64766242  0.10119696
   0.32747243  0.32571310  0.10134282
   0.68122870  0.00314749  0.10134569
   0.00379943  0.67945179  0.10134217
   0.00008980  0.50002046  0.33407689
   0.16670134  0.33340756  0.33409953
  -0.00000476  0.00000664  0.33405515
   0.16677933  0.83336341  0.33410365
   0.49998244  0.50009498  0.33407908
   0.66671461  0.33335261  0.33397442
   0.49990633 -0.00008953  0.33407563
   0.66665692  0.83328092  0.33410002
Direct configuration=    24
   0.00414189  0.00269715  0.10319185
   0.35930739  0.00306055  0.10121621
   0.00390991  0.35761325  0.10121859
   0.64927429  0.64764622  0.10120988
   0.32739669  0.32563387  0.10132554
   0.68130570  0.00316197  0.10132168
   0.00379263  0.67951328  0.10131672
   0.00009373  0.50003590  0.33410214
   0.16670249  0.33340637  0.33411537
   0.00001504  0.00001108  0.33406548
   0.16674188  0.83333930  0.33411974
   0.49999187  0.50007057  0.33410489
   0.66669522  0.33334963  0.33398742
   0.49995546 -0.00006823  0.33410116
   0.66663647  0.83329641  0.33411601
Direct configuration=    25
   0.00414095  0.00269382  0.10304195
   0.35933266  0.00307641  0.10123392
   0.00391000  0.35761939  0.10123721
   0.64924913  0.64762666  0.10122548
   0.32730519  0.32553817  0.10130467
   0.68139871  0.00317946  0.10129268
   0.00378442  0.67958756  0.10128598
   0.00009847  0.50005456  0.33413264
   0.16670389  0.33340493  0.33413451
   0.00003896  0.00001644  0.33407795
   0.16669665  0.83331018  0.33413918
   0.50000327  0.50004108  0.33413606
   0.66667180  0.33334604  0.33400312
   0.50001481 -0.00004250  0.33413200
   0.66661177  0.83331513  0.33413533
Direct configuration=    26
   0.00414443  0.00270470  0.10289226
   0.35935220  0.00311428  0.10123526
   0.00387173  0.35759831  0.10123892
   0.64926513  0.64760402  0.10122581
   0.32729267  0.32552127  0.10129354
   0.68140989  0.00318321  0.10127615
   0.00377697  0.67959049  0.10126835
   0.00001510  0.49998667  0.33415361
   0.16668180  0.33339695  0.33416491
   0.00002760  0.00001511  0.33408876
   0.16673663  0.83334983  0.33416975
   0.50005902  0.50003414  0.33415754
   0.66668359  0.33334806  0.33402902
   0.50001003  0.00002727  0.33415307
   0.66663386  0.83329303  0.33416573
Direct configuration=    27
   0.00414787  0.00271544  0.10274433
   0.35937152  0.00315171  0.10123659
   0.00383391  0.35757748  0.10124060
   0.64928095  0.64758164  0.10122613
   0.32728030  0.32550457  0.10128253
   0.68142095  0.00318691  0.10125982
   0.00376961  0.67959338  0.10125094
  -0.00006728  0.49991958  0.33417432
   0.16665997  0.33338906  0.33419494
   0.00001638  0.00001380  0.33409944
   0.16677613  0.83338902  0.33419996
   0.50011412  0.50002728  0.33417878
   0.66669524  0.33335005  0.33405462
   0.50000531  0.00009623  0.33417389
   0.66665570  0.83327118  0.33419577
Direct configuration=    28
   0.00414957  0.00272231  0.10263925
   0.35938079  0.00317696  0.10123208
   0.00380103  0.35756142  0.10123613
   0.64930142  0.64756735  0.10122138
   0.32730762  0.32552859  0.10127736
   0.68139375  0.00318367  0.10125218
   0.00376504  0.67956703  0.10124283
  -0.00005599  0.49992482  0.33418796
   0.16666268  0.33339151  0.33421735
   0.00001461  0.00001357  0.33411061
   0.16678169  0.83339097  0.33422239
   0.50010677  0.50003549  0.33419263
   0.66669894  0.33335099  0.33407490
   0.49999502  0.00008286  0.33418750
   0.66665773  0.83326980  0.33421813
Direct configuration=    29
   0.00415468  0.00274292  0.10232400
   0.35940861  0.00325269  0.10121858
   0.00370238  0.35751322  0.10122271
   0.64936283  0.64752445  0.10120711
   0.32738957  0.32560064  0.10126183
   0.68131216  0.00317396  0.10122925
   0.00375132  0.67948798  0.10121848
  -0.00002211  0.49994054  0.33422888
   0.16667083  0.33339887  0.33428458
   0.00000928  0.00001288  0.33414413
   0.16679837  0.83339684  0.33428965
   0.50008471  0.50006012  0.33423419
   0.66671005  0.33335379  0.33413573
   0.49996417  0.00004277  0.33422832
   0.66666383  0.83326565  0.33428521
Direct configuration=    30
   0.00416489  0.00278413  0.10169352
   0.35946425  0.00340415  0.10119156
   0.00350509  0.35741684  0.10119588
   0.64948564  0.64743865  0.10117858
   0.32755347  0.32574475  0.10123077
   0.68114897  0.00315454  0.10118340
   0.00372387  0.67932987  0.10116980
   0.00004566  0.49997199  0.33431071
   0.16668712  0.33341359  0.33441904
  -0.00000138  0.00001150  0.33421116
   0.16683172  0.83340859  0.33442419
   0.50004061  0.50010938  0.33431732
   0.66673227  0.33335940  0.33425739
   0.49990245 -0.00003740  0.33430997
   0.66667604  0.83325736  0.33441936
Direct configuration=    31
   0.00416100  0.00276843  0.10193368
   0.35944305  0.00334646  0.10120185
   0.00358024  0.35745355  0.10120610
   0.64943886  0.64747133  0.10118945
   0.32749104  0.32568986  0.10124260
   0.68121113  0.00316194  0.10120087
   0.00373432  0.67939009  0.10118834
   0.00001985  0.49996001  0.33427954
   0.16668091  0.33340798  0.33436782
   0.00000268  0.00001203  0.33418562
   0.16681902  0.83340411  0.33437295
   0.50005741  0.50009062  0.33428566
   0.66672381  0.33335727  0.33421105
   0.49992596 -0.00000686  0.33427887
   0.66667139  0.83326052  0.33436826
Direct configuration=    32
   0.00415957  0.00277187  0.10171491
   0.35941764  0.00334886  0.10118934
   0.00355300  0.35742667  0.10119316
   0.64948315  0.64748605  0.10117759
   0.32748603  0.32567822  0.10122380
   0.68121821  0.00315179  0.10118143
   0.00372858  0.67940943  0.10116889
   0.00009497  0.50004040  0.33432378
   0.16669599  0.33340266  0.33439919
   0.00004632  0.00002211  0.33423933
   0.16671964  0.83333684  0.33440388
   0.50003063  0.50005604  0.33432966
   0.66668301  0.33335213  0.33424546
   0.50001285 -0.00002628  0.33432281
   0.66663108  0.83331054  0.33439943
Direct configuration=    33
   0.00415920  0.00277278  0.10165719
   0.35941093  0.00334950  0.10118604
   0.00354581  0.35741958  0.10118975
   0.64949483  0.64748994  0.10117446
   0.32748470  0.32567515  0.10121884
   0.68122008  0.00314911  0.10117630
   0.00372706  0.67941453  0.10116375
   0.00011479  0.50006161  0.33433545
   0.16669997  0.33340126  0.33440747
   0.00005783  0.00002477  0.33425350
   0.16669342  0.83331909  0.33441204
   0.50002356  0.50004692  0.33434127
   0.66667225  0.33335077  0.33425454
   0.50003577 -0.00003140  0.33433440
   0.66662045  0.83332373  0.33440766
Direct configuration=    34
   0.00415625  0.00277179  0.10148543
   0.35936482  0.00330006  0.10117580
   0.00357493  0.35742144  0.10117878
   0.64950297  0.64752866  0.10116583
   0.32742915  0.32561835  0.10119245
   0.68127354  0.00314190  0.10115409
   0.00372892  0.67948063  0.10114249
   0.00007303  0.50004020  0.33438219
   0.16670965  0.33339991  0.33442208
   0.00004390  0.00002333  0.33431969
   0.16671261  0.83333002  0.33442600
   0.50002911  0.50003616  0.33438725
   0.66668875  0.33335468  0.33427774
   0.50003079 -0.00000538  0.33438078
   0.66664223  0.83332559  0.33442208
Direct configuration=    35
   0.00415346  0.00277086  0.10132259
   0.35932110  0.00325320  0.10116609
   0.00360254  0.35742320  0.10116837
   0.64951069  0.64756536  0.10115765
   0.32737648  0.32556450  0.10116744
   0.68132422  0.00313506  0.10113303
   0.00373069  0.67954329  0.10112233
   0.00003344  0.50001990  0.33442649
   0.16671883  0.33339863  0.33443594
   0.00003069  0.00002196  0.33438244
   0.16673081  0.83334039  0.33443923
   0.50003438  0.50002596  0.33443084
   0.66670440  0.33335839  0.33429972
   0.50002606  0.00001928  0.33442475
   0.66666287  0.83332735  0.33443574
Direct configuration=    36
   0.00415492  0.00277769  0.10122130
   0.35932088  0.00319279  0.10116067
   0.00366313  0.35747776  0.10116227
   0.64944265  0.64756303  0.10115397
   0.32738881  0.32558575  0.10113646
   0.68129951  0.00313440  0.10110896
   0.00374034  0.67951821  0.10109975
   0.00004704  0.49998582  0.33444910
   0.16668437  0.33340683  0.33445719
   0.00003140  0.00002090  0.33441963
   0.16677987  0.83338194  0.33446008
   0.50006889  0.50007823  0.33445274
   0.66670706  0.33335766  0.33432651
   0.49997557  0.00000407  0.33444713
   0.66665623  0.83328225  0.33445689
Direct configuration=    37
   0.00415553  0.00278052  0.10117922
   0.35932079  0.00316770  0.10115842
   0.00368831  0.35750043  0.10115974
   0.64941438  0.64756206  0.10115244
   0.32739393  0.32559458  0.10112359
   0.68128924  0.00313412  0.10109896
   0.00374434  0.67950778  0.10109037
   0.00005269  0.49997166  0.33445850
   0.16667005  0.33341024  0.33446602
   0.00003169  0.00002046  0.33443509
   0.16680026  0.83339921  0.33446874
   0.50008322  0.50009995  0.33446184
   0.66670817  0.33335735  0.33433764
   0.49995459 -0.00000225  0.33445643
   0.66665347  0.83326352  0.33446568
Direct configuration=    38
   0.00415531  0.00278187  0.10109238
   0.35932485  0.00310883  0.10115222
   0.00375414  0.35755951  0.10115288
   0.64933856  0.64755798  0.10114807
   0.32741572  0.32562948  0.10108754
   0.68125248  0.00313179  0.10107144
   0.00375614  0.67947159  0.10106465
   0.00007131  0.50000039  0.33447365
   0.16668372  0.33340828  0.33449641
   0.00004094  0.00002299  0.33446032
   0.16676970  0.83337586  0.33449897
   0.50006700  0.50008394  0.33447637
   0.66670060  0.33335696  0.33437034
   0.49998212 -0.00000807  0.33447140
   0.66664806  0.83328591  0.33449601
Direct configuration=    39
   0.00415515  0.00278289  0.10102713
   0.35932791  0.00306461  0.10114756
   0.00380360  0.35760390  0.10114773
   0.64928160  0.64755492  0.10114479
   0.32743209  0.32565570  0.10106046
   0.68122485  0.00313004  0.10105076
   0.00376500  0.67944440  0.10104534
   0.00008530  0.50002197  0.33448503
   0.16669400  0.33340681  0.33451925
   0.00004789  0.00002490  0.33447928
   0.16674675  0.83335832  0.33452168
   0.50005481  0.50007192  0.33448729
   0.66669492  0.33335667  0.33439492
   0.50000281 -0.00001245  0.33448266
   0.66664399  0.83330274  0.33451880
Direct configuration=    40
   0.00414843  0.00276614  0.10097556
   0.35930334  0.00304748  0.10113779
   0.00382557  0.35760090  0.10113767
   0.64928472  0.64758233  0.10113603
   0.32740306  0.32563529  0.10103469
   0.68124742  0.00312166  0.10103121
   0.00377032  0.67947773  0.10102709
   0.00004935  0.50002075  0.33449740
   0.16671815  0.33340348  0.33454403
   0.00003421  0.00002410  0.33449008
   0.16674534  0.83335088  0.33454674
   0.50003978  0.50004448  0.33449954
   0.66671035  0.33336112  0.33441615
   0.50001384  0.00000882  0.33449505
   0.66666678  0.83332217  0.33454363
Direct configuration=    41
   0.00414556  0.00275899  0.10095358
   0.35929286  0.00304018  0.10113362
   0.00383493  0.35759961  0.10113338
   0.64928604  0.64759402  0.10113230
   0.32739069  0.32562659  0.10102370
   0.68125704  0.00311809  0.10102287
   0.00377260  0.67949194  0.10101932
   0.00003402  0.50002024  0.33450267
   0.16672845  0.33340206  0.33455460
   0.00002838  0.00002376  0.33449469
   0.16674474  0.83334771  0.33455743
   0.50003338  0.50003278  0.33450476
   0.66671693  0.33336302  0.33442520
   0.50001855  0.00001789  0.33450033
   0.66667650  0.83333046  0.33455421
Direct configuration=    42
   0.00413786  0.00273946  0.10090937
   0.35926762  0.00305316  0.10111663
   0.00382754  0.35756746  0.10111630
   0.64932099  0.64762270  0.10111583
   0.32735636  0.32560071  0.10099912
   0.68128514  0.00310784  0.10100375
   0.00377586  0.67953271  0.10100133
   0.00005262  0.50000338  0.33452287
   0.16669763  0.33340520  0.33457709
   0.00004177  0.00002591  0.33450645
   0.16675991  0.83336820  0.33458047
   0.50006574  0.50006298  0.33452510
   0.66670646  0.33336072  0.33444091
   0.50000500  0.00001378  0.33452063
   0.66666019  0.83330312  0.33457682
Direct configuration=    43
   0.00413578  0.00273420  0.10089747
   0.35926083  0.00305666  0.10111205
   0.00382554  0.35755880  0.10111170
   0.64933040  0.64763043  0.10111140
   0.32734711  0.32559374  0.10099249
   0.68129271  0.00310508  0.10099860
   0.00377674  0.67954369  0.10099649
   0.00005763  0.49999883  0.33452831
   0.16668933  0.33340604  0.33458315
   0.00004538  0.00002649  0.33450962
   0.16676399  0.83337373  0.33458668
   0.50007445  0.50007111  0.33453057
   0.66670363  0.33336010  0.33444514
   0.50000135  0.00001267  0.33452610
   0.66665579  0.83329576  0.33458291
Direct configuration=    44
   0.00413410  0.00273031  0.10086333
   0.35926941  0.00309257  0.10108973
   0.00379652  0.35753271  0.10108951
   0.64935083  0.64762300  0.10108905
   0.32735634  0.32560772  0.10097183
   0.68127713  0.00310278  0.10098137
   0.00377633  0.67952810  0.10097995
   0.00007634  0.50001233  0.33455430
   0.16669543  0.33341042  0.33459970
   0.00004623  0.00002636  0.33452540
   0.16676404  0.83336984  0.33460380
   0.50006371  0.50007739  0.33455686
   0.66670415  0.33335996  0.33445597
   0.49999722 -0.00000420  0.33455226
   0.66665289  0.83329804  0.33459961
Direct configuration=    45
   0.00413078  0.00272263  0.10079581
   0.35928639  0.00316360  0.10104557
   0.00373911  0.35748109  0.10104561
   0.64939125  0.64760832  0.10104483
   0.32737460  0.32563537  0.10093095
   0.68124630  0.00309824  0.10094729
   0.00377552  0.67949725  0.10094725
   0.00011336  0.50003902  0.33460572
   0.16670750  0.33341908  0.33463243
   0.00004791  0.00002612  0.33455662
   0.16676414  0.83336216  0.33463767
   0.50004245  0.50008981  0.33460885
   0.66670516  0.33335969  0.33447740
   0.49998905 -0.00003758  0.33460401
   0.66664715  0.83330256  0.33463264
Direct configuration=    46
   0.00412412  0.00270726  0.10066077
   0.35932035  0.00330565  0.10095726
   0.00362429  0.35737784  0.10095782
   0.64947208  0.64757894  0.10095641
   0.32741112  0.32569067  0.10084919
   0.68118465  0.00308914  0.10087913
   0.00377391  0.67943556  0.10088184
   0.00018739  0.50009240  0.33470855
   0.16673163  0.33343640  0.33469790
   0.00005128  0.00002562  0.33461906
   0.16676434  0.83334679  0.33470542
   0.49999994  0.50011465  0.33471284
   0.66670720  0.33335915  0.33452027
   0.49997270 -0.00010434  0.33470750
   0.66663567  0.83331159  0.33469871
Direct configuration=    47
   0.00412912  0.00271880  0.10076215
   0.35929485  0.00319900  0.10102356
   0.00371049  0.35745535  0.10102373
   0.64941139  0.64760099  0.10102279
   0.32738370  0.32564915  0.10091057
   0.68123093  0.00309597  0.10093030
   0.00377512  0.67948188  0.10093095
   0.00013181  0.50005233  0.33463135
   0.16671351  0.33342340  0.33464875
   0.00004875  0.00002599  0.33457218
   0.16676419  0.83335833  0.33465456
   0.50003186  0.50009600  0.33463477
   0.66670567  0.33335956  0.33448809
   0.49998497 -0.00005422  0.33462980
   0.66664429  0.83330481  0.33464911
Direct configuration=    48
   0.00412875  0.00271863  0.10074490
   0.35930243  0.00321354  0.10101109
   0.00369764  0.35744824  0.10101135
   0.64941524  0.64759300  0.10101024
   0.32738791  0.32565371  0.10089891
   0.68122522  0.00309693  0.10091994
   0.00377361  0.67947401  0.10092085
   0.00011874  0.50004722  0.33464397
   0.16671488  0.33342047  0.33465887
   0.00004760  0.00002665  0.33458128
   0.16676358  0.83335947  0.33466490
   0.50003535  0.50008862  0.33464749
   0.66670836  0.33336088  0.33449706
   0.49999082 -0.00004217  0.33464251
   0.66665053  0.83330815  0.33465931
Direct configuration=    49
   0.00412765  0.00271811  0.10069315
   0.35932516  0.00325713  0.10097368
   0.00365910  0.35742689  0.10097420
   0.64942677  0.64756900  0.10097258
   0.32740052  0.32566739  0.10086394
   0.68120807  0.00309981  0.10088885
   0.00376907  0.67945040  0.10089054
   0.00007954  0.50003189  0.33468184
   0.16671900  0.33341170  0.33468925
   0.00004414  0.00002861  0.33460858
   0.16676176  0.83336290  0.33469591
   0.50004584  0.50006646  0.33468563
   0.66671641  0.33336486  0.33452398
   0.50000835 -0.00000601  0.33468063
   0.66666927  0.83331819  0.33468993
Direct configuration=    50
   0.00412545  0.00271709  0.10058965
   0.35937062  0.00334433  0.10089886
   0.00358200  0.35738421  0.10089989
   0.64944983  0.64752101  0.10089726
   0.32742575  0.32569475  0.10079400
   0.68117378  0.00310558  0.10082667
   0.00376000  0.67940318  0.10082994
   0.00000114  0.50000122  0.33475757
   0.16672724  0.33339415  0.33475000
   0.00003723  0.00003253  0.33466317
   0.16675811  0.83336976  0.33475793
   0.50006682  0.50002214  0.33476191