    8    8    1    1
  0.4142730E+02  0.5051000E-09  0.5051000E-09  0.1500000E-08  0.5000000E-15
  1.000000000000000E-004
  CAR 
 PDoS                                    
     24   1089     48
 
  0.0000000E+00  0.0000000E+00  0.0000000E+00  0.2366864E-03
      1        -17.888877   1.000000
      2        -13.732210   1.000000
      3        -13.648373   1.000000
      4        -13.648368   1.000000
      5        -11.483918   1.000000
      6        -11.483909   1.000000
      7         -9.413440   1.000000
      8         -8.730169   1.000000
      9         -3.827328   1.000000
     10         -3.827326   1.000000
     11         -2.297552   0.900289
     12         -1.730067   0.000000
     13         -1.730064   0.000000
     14         -1.513201   0.000000
     15         -1.513192   0.000000
     16         -1.255706   0.000000
     17         -1.255702   0.000000
     18          0.781494   0.000000
     19          1.627678   0.000000
     20          2.378345   0.000000
     21          2.516951   0.000000
     22          4.392498   0.000000
     23          4.952028   0.000000
     24          5.696933   0.000000
     25          6.353885   0.000000
     26          6.353894   0.000000
     27          6.593025   0.000000
     28          7.520882   0.000000
     29          7.520882   0.000000
     30          8.051870   0.000000
     31          8.350648   0.000000
     32          8.607972   0.000000
     33          9.012263   0.000000
     34          9.103807   0.000000
     35          9.317582   0.000000
     36          9.362465   0.000000
     37          9.362498   0.000000
     38          9.385612   0.000000
     39          9.434959   0.000000
     40          9.435069   0.000000
     41          9.500225   0.000000
     42          9.534178   0.000000
     43          9.534235   0.000000
     44          9.570351   0.000000
     45          9.570385   0.000000
     46         10.340746   0.000000
     47         10.346426   0.000000
     48         10.415499   0.000000
 
  0.1538462E-01  0.2545765E-17  0.0000000E+00  0.9467456E-03
      1        -17.887798   1.000000
      2        -13.796967   1.000000
      3        -13.649530   1.000000
      4        -13.584364   1.000000
      5        -11.485961   1.000000
      6        -11.481005   1.000000
      7         -9.408081   1.000000
      8         -8.728522   1.000000
      9         -3.842250   1.000000
     10         -3.839764   1.000000
     11         -2.336852   0.967041
     12         -1.752523   0.000000
     13         -1.713267   0.000000
     14         -1.499824   0.000000
     15         -1.497303   0.000000
     16         -1.234805   0.000000
     17         -1.230037   0.000000
     18          0.783269   0.000000
     19          1.630746   0.000000
     20          2.380176   0.000000
     21          2.521923   0.000000
     22          4.394315   0.000000
     23          4.953757   0.000000
     24          5.685131   0.000000
     25          6.347237   0.000000
     26          6.349730   0.000000
     27          6.585202   0.000000
     28          7.506331   0.000000
     29          7.517237   0.000000
     30          8.045491   0.000000
     31          8.352273   0.000000
     32          8.610116   0.000000
     33          9.003504   0.000000
     34          9.085761   0.000000
     35          9.263545   0.000000
     36          9.272636   0.000000
     37          9.336604   0.000000
     38          9.360159   0.000000
     39          9.403119   0.000000
     40          9.434324   0.000000
     41          9.466348   0.000000
     42          9.496698   0.000000
     43          9.604264   0.000000
     44          9.673757   0.000000
     45          9.756369   0.000000
     46         10.213335   0.000000
     47         10.280632   0.000000
     48         10.366149   0.000000
 
 -0.1538462E-01  0.1538462E-01  0.0000000E+00  0.4733728E-03
      1        -17.887798   1.000000
      2        -13.796969   1.000000
      3        -13.649526   1.000000
      4        -13.584366   1.000000
      5        -11.485955   1.000000
      6        -11.481011   1.000000
      7         -9.408081   1.000000
      8         -8.728522   1.000000
      9         -3.842251   1.000000
     10         -3.839763   1.000000
     11         -2.336852   0.967042
     12         -1.752521   0.000000
     13         -1.713268   0.000000
     14         -1.499831   0.000000
     15         -1.497297   0.000000
     16         -1.234803   0.000000
     17         -1.230039   0.000000
     18          0.783269   0.000000
     19          1.630746   0.000000
     20          2.380176   0.000000
     21          2.521923   0.000000
     22          4.394315   0.000000
     23          4.953757   0.000000
     24          5.685131   0.000000
     25          6.347244   0.000000
     26          6.349723   0.000000
     27          6.585201   0.000000
     28          7.506330   0.000000
     29          7.517237   0.000000
     30          8.045491   0.000000
     31          8.352273   0.000000
     32          8.610116   0.000000
     33          9.003502   0.000000
     34          9.085760   0.000000
     35          9.263547   0.000000
     36          9.272638   0.000000
     37          9.336612   0.000000
     38          9.360137   0.000000
     39          9.403109   0.000000
     40          9.434354   0.000000
     41          9.466345   0.000000
     42          9.496708   0.000000
     43          9.604228   0.000000
     44          9.673784   0.000000
     45          9.756363   0.000000
     46         10.213248   0.000000
     47         10.280687   0.000000
     48         10.366312   0.000000
 
  0.3076923E-01  0.3488678E-17  0.0000000E+00  0.9467456E-03
      1        -17.884560   1.000000
      2        -13.891371   1.000000
      3        -13.652971   1.000000
      4        -13.492268   1.000000
      5        -11.491917   1.000000
      6        -11.472302   1.000000
      7         -9.392151   1.000000
      8         -8.723583   1.000000
      9         -3.885740   1.000000
     10         -3.876161   1.000000
     11         -2.436742   0.999426
     12         -1.809295   0.000000
     13         -1.681390   0.000000
     14         -1.460540   0.000000
     15         -1.450816   0.000000
     16         -1.171557   0.000000
     17         -1.163638   0.000000
     18          0.788596   0.000000
     19          1.639880   0.000000
     20          2.385669   0.000000
     21          2.536831   0.000000
     22          4.399767   0.000000
     23          4.958942   0.000000
     24          5.649964   0.000000
     25          6.325482   0.000000
     26          6.337324   0.000000
     27          6.564442   0.000000
     28          7.463742   0.000000
     29          7.506421   0.000000
     30          8.026392   0.000000
     31          8.357114   0.000000
     32          8.616555   0.000000
     33          8.975982   0.000000
     34          9.039912   0.000000
     35          9.057915   0.000000
     36          9.217094   0.000000
     37          9.254456   0.000000
     38          9.295315   0.000000
     39          9.322022   0.000000
     40          9.448793   0.000000
     41          9.523766   0.000000
     42          9.629041   0.000000
     43          9.706184   0.000000
     44          9.796735   0.000000
     45          9.983261   0.000000
     46         10.059291   0.000000
     47         10.195076   0.000000
     48         10.296593   0.000000
 
 -0.3076923E-01  0.3076923E-01  0.0000000E+00  0.4733728E-03
      1        -17.884560   1.000000
      2        -13.891373   1.000000
      3        -13.652967   1.000000
      4        -13.492270   1.000000
      5        -11.491911   1.000000
      6        -11.472309   1.000000
      7         -9.392151   1.000000
      8         -8.723583   1.000000
      9         -3.885741   1.000000
     10         -3.876160   1.000000
     11         -2.436744   0.999426
     12         -1.809294   0.000000
     13         -1.681388   0.000000
     14         -1.460546   0.000000
     15         -1.450809   0.000000
     16         -1.171557   0.000000
     17         -1.163641   0.000000
     18          0.788596   0.000000
     19          1.639880   0.000000
     20          2.385669   0.000000
     21          2.536831   0.000000
     22          4.399767   0.000000
     23          4.958942   0.000000
     24          5.649965   0.000000
     25          6.325491   0.000000
     26          6.337318   0.000000
     27          6.564439   0.000000
     28          7.463742   0.000000
     29          7.506422   0.000000
     30          8.026392   0.000000
     31          8.357114   0.000000
     32          8.616555   0.000000
     33          8.975977   0.000000
     34          9.039907   0.000000
     35          9.057915   0.000000
     36          9.217100   0.000000
     37          9.254430   0.000000
     38          9.295331   0.000000
     39          9.322047   0.000000
     40          9.448780   0.000000
     41          9.523773   0.000000
     42          9.629044   0.000000
     43          9.706152   0.000000
     44          9.796764   0.000000
     45          9.983255   0.000000
     46         10.059253   0.000000
     47         10.195135   0.000000
     48         10.296647   0.000000
 
  0.4615385E-01  0.5872119E-17  0.0000000E+00  0.9467456E-03
      1        -17.879166   1.000000
      2        -13.988776   1.000000
      3        -13.658621   1.000000
      4        -13.398853   1.000000
      5        -11.501262   1.000000
      6        -11.457888   1.000000
      7         -9.366092   1.000000
      8         -8.715354   1.000000
      9         -3.954640   1.000000
     10         -3.934087   1.000000
     11         -2.569522   1.000000
     12         -1.883602   0.000002
     13         -1.658634   0.000000
     14         -1.397802   0.000000
     15         -1.376974   0.000000
     16         -1.073309   0.000000
     17         -1.069290   0.000000
     18          0.797473   0.000000
     19          1.654874   0.000000
     20          2.394824   0.000000
     21          2.561654   0.000000
     22          4.408848   0.000000
     23          4.967572   0.000000
     24          5.592081   0.000000
     25          6.284778   0.000000
     26          6.316900   0.000000
     27          6.536915   0.000000
     28          7.396459   0.000000
     29          7.488766   0.000000
     30          7.994688   0.000000
     31          8.364999   0.000000
     32          8.627285   0.000000
     33          8.837147   0.000000
     34          8.924430   0.000000
     35          8.982303   0.000000
     36          9.151991   0.000000
     37          9.196843   0.000000
     38          9.212823   0.000000
     39          9.254156   0.000000
     40          9.497736   0.000000
     41          9.590589   0.000000
     42          9.785840   0.000000
     43          9.813685   0.000000
     44          9.923691   0.000000
     45          9.936886   0.000000
     46         10.120680   0.000000
     47         10.210702   0.000000
     48         10.234436   0.000000
 
 -0.4615385E-01  0.4615385E-01  0.0000000E+00  0.4733728E-03
      1        -17.879166   1.000000
      2        -13.988779   1.000000
      3        -13.658617   1.000000
      4        -13.398854   1.000000
      5        -11.501256   1.000000
      6        -11.457894   1.000000
      7         -9.366092   1.000000
      8         -8.715354   1.000000
      9         -3.954641   1.000000
     10         -3.934086   1.000000
     11         -2.569524   1.000000
     12         -1.883601   0.000002
     13         -1.658630   0.000000
     14         -1.397808   0.000000
     15         -1.376967   0.000000
     16         -1.073311   0.000000
     17         -1.069292   0.000000
     18          0.797473   0.000000
     19          1.654874   0.000000
     20          2.394824   0.000000
     21          2.561654   0.000000
     22          4.408848   0.000000
     23          4.967572   0.000000
     24          5.592082   0.000000
     25          6.284789   0.000000
     26          6.316893   0.000000
     27          6.536909   0.000000
     28          7.396459   0.000000
     29          7.488767   0.000000
     30          7.994688   0.000000
     31          8.365000   0.000000
     32          8.627285   0.000000
     33          8.837146   0.000000
     34          8.924421   0.000000
     35          8.982291   0.000000
     36          9.151965   0.000000
     37          9.196849   0.000000
     38          9.212862   0.000000
     39          9.254159   0.000000
     40          9.497727   0.000000
     41          9.590597   0.000000
     42          9.785839   0.000000
     43          9.813653   0.000000
     44          9.923705   0.000000
     45          9.936899   0.000000
     46         10.120725   0.000000
     47         10.210679   0.000000
     48         10.234453   0.000000
 
  0.6153846E-01  0.6977356E-17  0.0000000E+00  0.9467456E-03
      1        -17.871621   1.000000
      2        -14.087030   1.000000
      3        -13.666370   1.000000
      4        -13.306554   1.000000
      5        -11.513169   1.000000
      6        -11.437899   1.000000
      7         -9.330602   1.000000
      8         -8.703840   1.000000
      9         -4.044631   1.000000
     10         -4.010185   1.000000
     11         -2.718735   1.000000
     12         -1.965225   0.000317
     13         -1.651277   0.000000
     14         -1.314873   0.000000
     15         -1.280064   0.000000
     16         -0.969269   0.000000
     17         -0.937941   0.000000
     18          0.809900   0.000000
     19          1.675415   0.000000
     20          2.407640   0.000000
     21          2.596327   0.000000
     22          4.421552   0.000000
     23          4.979629   0.000000
     24          5.512377   0.000000
     25          6.223393   0.000000
     26          6.288795   0.000000
     27          6.507093   0.000000
     28          7.310063   0.000000
     29          7.464782   0.000000
     30          7.950560   0.000000
     31          8.375098   0.000000
     32          8.618681   0.000000
     33          8.642278   0.000000
     34          8.837957   0.000000
     35          8.928740   0.000000
     36          9.051293   0.000000
     37          9.107115   0.000000
     38          9.195843   0.000000
     39          9.213858   0.000000
     40          9.540895   0.000000
     41          9.664333   0.000000
     42          9.850681   0.000000
     43          9.921014   0.000000
     44          9.941077   0.000000
     45         10.054283   0.000000
     46         10.087917   0.000000
     47         10.183556   0.000000
     48         10.432545   0.000000
 
 -0.6153846E-01  0.6153846E-01  0.0000000E+00  0.4733728E-03
      1        -17.871621   1.000000
      2        -14.087033   1.000000
      3        -13.666367   1.000000
      4        -13.306555   1.000000
      5        -11.513163   1.000000
      6        -11.437905   1.000000
      7         -9.330602   1.000000
      8         -8.703840   1.000000
      9         -4.044632   1.000000
     10         -4.010184   1.000000
     11         -2.718737   1.000000
     12         -1.965224   0.000317
     13         -1.651270   0.000000
     14         -1.314879   0.000000
     15         -1.280058   0.000000
     16         -0.969271   0.000000
     17         -0.937944   0.000000
     18          0.809900   0.000000
     19          1.675415   0.000000
     20          2.407640   0.000000
     21          2.596327   0.000000
     22          4.421552   0.000000
     23          4.979629   0.000000
     24          5.512379   0.000000
     25          6.223403   0.000000
     26          6.288788   0.000000
     27          6.507086   0.000000
     28          7.310063   0.000000
     29          7.464783   0.000000
     30          7.950560   0.000000
     31          8.375099   0.000000
     32          8.618679   0.000000
     33          8.642278   0.000000
     34          8.837941   0.000000
     35          8.928728   0.000000
     36          9.051266   0.000000
     37          9.107150   0.000000
     38          9.195850   0.000000
     39          9.213866   0.000000
     40          9.540891   0.000000
     41          9.664343   0.000000
     42          9.850680   0.000000
     43          9.920987   0.000000
     44          9.941114   0.000000
     45         10.054313   0.000000
     46         10.087919   0.000000
     47         10.183547   0.000000
     48         10.432535   0.000000
 
  0.7692308E-01  0.5404377E-17  0.0000000E+00  0.9467456E-03
      1        -17.861928   1.000000
      2        -14.185538   1.000000
      3        -13.676055   1.000000
      4        -13.216343   1.000000
      5        -11.526541   1.000000
      6        -11.412511   1.000000
      7         -9.286569   1.000000
      8         -8.689045   1.000000
      9         -4.151330   1.000000
     10         -4.100846   1.000000
     11         -2.876339   1.000000
     12         -2.049232   0.012921
     13         -1.656469   0.000000
     14         -1.215293   0.000000
     15         -1.164530   0.000000
     16         -0.856458   0.000000
     17         -0.788062   0.000000
     18          0.825875   0.000000
     19          1.701117   0.000000
     20          2.424117   0.000000
     21          2.640733   0.000000
     22          4.437869   0.000000
     23          4.995072   0.000000
     24          5.412005   0.000000
     25          6.144241   0.000000
     26          6.253457   0.000000
     27          6.474125   0.000000
     28          7.211840   0.000000
     29          7.435133   0.000000
     30          7.894265   0.000000
     31          8.366758   0.000000
     32          8.424283   0.000000
     33          8.661510   0.000000
     34          8.717314   0.000000
     35          8.881410   0.000000
     36          8.952808   0.000000
     37          9.004956   0.000000
     38          9.173433   0.000000
     39          9.207300   0.000000
     40          9.571000   0.000000
     41          9.743855   0.000000
     42          9.803983   0.000000
     43          9.981811   0.000000
     44         10.024174   0.000000
     45         10.145911   0.000000
     46         10.188402   0.000000
     47         10.208490   0.000000
     48         10.626176   0.000000
 
 -0.7692308E-01  0.7692308E-01  0.0000000E+00  0.4733728E-03
      1        -17.861928   1.000000
      2        -14.185541   1.000000
      3        -13.676051   1.000000
      4        -13.216343   1.000000
      5        -11.526535   1.000000
      6        -11.412517   1.000000
      7         -9.286569   1.000000
      8         -8.689045   1.000000
      9         -4.151330   1.000000
     10         -4.100845   1.000000
     11         -2.876342   1.000000
     12         -2.049232   0.012921
     13         -1.656462   0.000000
     14         -1.215299   0.000000
     15         -1.164524   0.000000
     16         -0.856460   0.000000
     17         -0.788067   0.000000
     18          0.825875   0.000000
     19          1.701117   0.000000
     20          2.424118   0.000000
     21          2.640734   0.000000
     22          4.437869   0.000000
     23          4.995072   0.000000
     24          5.412008   0.000000
     25          6.144251   0.000000
     26          6.253451   0.000000
     27          6.474118   0.000000
     28          7.211839   0.000000
     29          7.435134   0.000000
     30          7.894265   0.000000
     31          8.366765   0.000000
     32          8.424275   0.000000
     33          8.661510   0.000000
     34          8.717291   0.000000
     35          8.881400   0.000000
     36          8.952778   0.000000
     37          9.004991   0.000000
     38          9.173441   0.000000
     39          9.207306   0.000000
     40          9.571004   0.000000
     41          9.743863   0.000000
     42          9.804028   0.000000
     43          9.981826   0.000000
     44         10.024140   0.000000
     45         10.145865   0.000000
     46         10.188433   0.000000
     47         10.208502   0.000000
     48         10.626192   0.000000
 
  0.9230769E-01  0.1030371E-16  0.0000000E+00  0.9467456E-03
      1        -17.850103   1.000000
      2        -14.284028   1.000000
      3        -13.687503   1.000000
      4        -13.129034   1.000000
      5        -11.540066   1.000000
      6        -11.381948   1.000000
      7         -9.235025   1.000000
      8         -8.670980   1.000000
      9         -4.270782   1.000000
     10         -4.202656   1.000000
     11         -3.038259   1.000000
     12         -2.133221   0.148986
     13         -1.670551   0.000000
     14         -1.102372   0.000000
     15         -1.034342   0.000000
     16         -0.737290   0.000000
     17         -0.626992   0.000000
     18          0.845398   0.000000
     19          1.731562   0.000000
     20          2.444255   0.000000
     21          2.694675   0.000000
     22          4.457784   0.000000
     23          5.013804   0.000000
     24          5.292516   0.000000
     25          6.052576   0.000000
     26          6.211393   0.000000
     27          6.433248   0.000000
     28          7.109930   0.000000
     29          7.400573   0.000000
     30          7.826137   0.000000
     31          8.178880   0.000000
     32          8.415412   0.000000
     33          8.570876   0.000000
     34          8.684951   0.000000
     35          8.837978   0.000000
     36          8.856867   0.000000
     37          8.906378   0.000000
     38          9.131737   0.000000
     39          9.226345   0.000000
     40          9.585371   0.000000
     41          9.773126   0.000000
     42          9.827710   0.000000
     43          9.996744   0.000000
     44         10.115087   0.000000
     45         10.123202   0.000000
     46         10.326005   0.000000
     47         10.408270   0.000000
     48         10.626684   0.000000
 
 -0.9230769E-01  0.9230769E-01  0.0000000E+00  0.4733728E-03
      1        -17.850103   1.000000
      2        -14.284031   1.000000
      3        -13.687499   1.000000
      4        -13.129033   1.000000
      5        -11.540061   1.000000
      6        -11.381954   1.000000
      7         -9.235025   1.000000
      8         -8.670980   1.000000
      9         -4.270782   1.000000
     10         -4.202656   1.000000
     11         -3.038262   1.000000
     12         -2.133221   0.148986
     13         -1.670543   0.000000
     14         -1.102378   0.000000
     15         -1.034337   0.000000
     16         -0.737291   0.000000
     17         -0.626997   0.000000
     18          0.845398   0.000000
     19          1.731562   0.000000
     20          2.444255   0.000000
     21          2.694676   0.000000
     22          4.457784   0.000000
     23          5.013804   0.000000
     24          5.292520   0.000000
     25          6.052585   0.000000
     26          6.211386   0.000000
     27          6.433241   0.000000
     28          7.109928   0.000000
     29          7.400574   0.000000
     30          7.826137   0.000000
     31          8.178882   0.000000
     32          8.415410   0.000000
     33          8.570849   0.000000
     34          8.684951   0.000000
     35          8.837978   0.000000
     36          8.856829   0.000000
     37          8.906413   0.000000
     38          9.131744   0.000000
     39          9.226349   0.000000
     40          9.585388   0.000000
     41          9.773187   0.000000
     42          9.827723   0.000000
     43          9.996721   0.000000
     44         10.115050   0.000000
     45         10.123168   0.000000
     46         10.326034   0.000000
     47         10.408277   0.000000
     48         10.626674   0.000000
 
  0.1076923E+00  0.9055380E-17  0.0000000E+00  0.9467456E-03
      1        -17.836151   1.000000
      2        -14.382291   1.000000
      3        -13.700507   1.000000
      4        -13.045504   1.000000
      5        -11.552238   1.000000
      6        -11.346454   1.000000
      7         -9.177080   1.000000
      8         -8.649653   1.000000
      9         -4.399696   1.000000
     10         -4.312570   1.000000
     11         -3.202245   1.000000
     12         -2.215939   0.551332
     13         -1.690918   0.000000
     14         -0.978972   0.000000
     15         -0.892805   0.000000
     16         -0.613031   0.000000
     17         -0.459139   0.000000
     18          0.868468   0.000000
     19          1.766342   0.000000
     20          2.468052   0.000000
     21          2.757848   0.000000
     22          4.481279   0.000000
     23          5.035317   0.000000
     24          5.156319   0.000000
     25          5.952961   0.000000
     26          6.163135   0.000000
     27          6.378769   0.000000
     28          7.012415   0.000000
     29          7.361915   0.000000
     30          7.746559   0.000000
     31          7.968586   0.000000
     32          8.406994   0.000000
     33          8.435043   0.000000
     34          8.712547   0.000000
     35          8.763707   0.000000
     36          8.797999   0.000000
     37          8.811398   0.000000
     38          9.087974   0.000000
     39          9.249954   0.000000
     40          9.580386   0.000000
     41          9.753499   0.000000
     42          9.912906   0.000000
     43         10.039483   0.000000
     44         10.117957   0.000000
     45         10.168092   0.000000
     46         10.467037   0.000000
     47         10.497087   0.000000
     48         10.626424   0.000000
 
 -0.1076923E+00  0.1076923E+00  0.0000000E+00  0.4733728E-03
      1        -17.836151   1.000000
      2        -14.382294   1.000000
      3        -13.700503   1.000000
      4        -13.045503   1.000000
      5        -11.552233   1.000000
      6        -11.346460   1.000000
      7         -9.177080   1.000000
      8         -8.649653   1.000000
      9         -4.399696   1.000000
     10         -4.312570   1.000000
     11         -3.202248   1.000000
     12         -2.215939   0.551332
     13         -1.690910   0.000000
     14         -0.978977   0.000000
     15         -0.892799   0.000000
     16         -0.613032   0.000000
     17         -0.459144   0.000000
     18          0.868468   0.000000
     19          1.766343   0.000000
     20          2.468052   0.000000
     21          2.757849   0.000000
     22          4.481280   0.000000
     23          5.035318   0.000000
     24          5.156324   0.000000
     25          5.952968   0.000000
     26          6.163129   0.000000
     27          6.378763   0.000000
     28          7.012413   0.000000
     29          7.361917   0.000000
     30          7.746559   0.000000
     31          7.968587   0.000000
     32          8.406966   0.000000
     33          8.435041   0.000000
     34          8.712547   0.000000
     35          8.763685   0.000000
     36          8.797984   0.000000
     37          8.811434   0.000000
     38          9.087978   0.000000
     39          9.249957   0.000000
     40          9.580422   0.000000
     41          9.753560   0.000000
     42          9.912914   0.000000
     43         10.039440   0.000000
     44         10.117926   0.000000
     45         10.168051   0.000000
     46         10.467065   0.000000
     47         10.497104   0.000000
     48         10.626423   0.000000
 
  0.1230769E+00  0.1395471E-16  0.0000000E+00  0.9467456E-03
      1        -17.820091   1.000000
      2        -14.480210   1.000000
      3        -13.714845   1.000000
      4        -12.966767   1.000000
      5        -11.561417   1.000000
      6        -11.306307   1.000000
      7         -9.113907   1.000000
      8         -8.625078   1.000000
      9         -4.535467   1.000000
     10         -4.428047   1.000000
     11         -3.366942   1.000000
     12         -2.296675   0.898100
     13         -1.715837   0.000000
     14         -0.847474   0.000000
     15         -0.742585   0.000000
     16         -0.484399   0.000000
     17         -0.287146   0.000000
     18          0.895081   0.000000
     19          1.805091   0.000000
     20          2.495507   0.000000
     21          2.829819   0.000000
     22          4.508331   0.000000
     23          5.000635   0.000000
     24          5.064693   0.000000
     25          5.848252   0.000000
     26          6.109227   0.000000
     27          6.306301   0.000000
     28          6.925860   0.000000
     29          7.319975   0.000000
     30          7.655989   0.000000
     31          7.760238   0.000000
     32          8.232527   0.000000
     33          8.458620   0.000000
     34          8.673776   0.000000
     35          8.720028   0.000000
     36          8.744164   0.000000
     37          8.761186   0.000000
     38          9.041918   0.000000
     39          9.276555   0.000000
     40          9.555147   0.000000
     41          9.744753   0.000000
     42          9.991644   0.000000
     43         10.104081   0.000000
     44         10.115088   0.000000
     45         10.136849   0.000000
     46         10.443705   0.000000
     47         10.611426   0.000000
     48         10.855702   0.000000
 
 -0.1230769E+00  0.1230769E+00  0.0000000E+00  0.4733728E-03
      1        -17.820091   1.000000
      2        -14.480213   1.000000
      3        -13.714842   1.000000
      4        -12.966765   1.000000
      5        -11.561413   1.000000
      6        -11.306314   1.000000
      7         -9.113906   1.000000
      8         -8.625078   1.000000