 vasp.6.3.2 27Jun22 (build Dec 22 2022 13:13:19) complex                        
  
 executed on             LinuxIFC date 2023.11.03  15:05:04
 running   48 mpi-ranks, with    1 threads/rank
 distrk:  each k-point on   48 cores,    1 groups
 distr:  one band on NCORE=   1 cores,   48 groups


--------------------------------------------------------------------------------------------------------


 INCAR:
   SYSTEM = PDoS
   ISTART = 1
   ICHARG = 11
   PREC = Accurate
   LORBIT = 11
   NEDOS = 4000
   ENCUT = 450
   LCHARG = .FALSE.
   LWAVE = .FALSE.
   ALGO = Normal
   EDIFF = 1E-6
   EDIFFG = -1E-3
   SIGMA = 0.1
   ISMEAR = 0
   SYMPREC = 1E-6
   NSW = 0
   IBRION = -1
   POTIM = .5

 POTCAR:    PAW_PBE B 06Sep2000                   
 POTCAR:    PAW_PBE B 06Sep2000                   
   SHA256 =  a32ced30f5ae56fd4d10b4325ff17eb3e4e38ee0f4288bc219fb012fddfa6e97 B/POTCAR              
   COPYR  = (c) Copyright 06Sep2000 Georg Kresse                                                    
   COPYR  = This file is part of the software VASP. Any use, copying, and all other rights are regul
   COPYR  = If you do not have a valid VASP license, you may not use, copy or distribute this file. 
   VRHFIN =B: s2p1                                                                                  
   LEXCH  = PE                                                                                      
   EATOM  =    71.1703 eV,    5.2309 Ry                                                             
                                                                                                    
   TITEL  = PAW_PBE B 06Sep2000                                                                     
   LULTRA =        F    use ultrasoft PP ?                                                          
   IUNSCR =        1    unscreen: 0-lin 1-nonlin 2-no                                               
   RPACOR =    1.200    partial core radius                                                         
   POMASS =   10.811; ZVAL   =    3.000    mass and valenz                                          
   RCORE  =    1.700    outmost cutoff radius                                                       
   RWIGS  =    1.710; RWIGS  =    0.905    wigner-seitz radius (au A)                               
   ENMAX  =  318.614; ENMIN  =  238.960 eV                                                          
   ICORE  =        2    local potential                                                             
   LCOR   =        T    correct aug charges                                                         
   LPAW   =        T    paw PP                                                                      
   EAUG   =  535.514                                                                                
   DEXC   =    0.000                                                                                
   RMAX   =    1.732    core radius for proj-oper                                                   
   RAUG   =    1.300    factor for augmentation sphere                                              
   RDEP   =    1.757    radius for radial grids                                                     
   RDEPT  =    1.436    core radius for aug-charge                                                  
                                                                                                    
   Atomic configuration                                                                             
    4 entries                                                                                       
     n  l   j            E        occ.                                                              
     1  0  0.50      -180.5896   2.0000                                                             
     2  0  0.50        -9.4431   2.0000                                                             
     2  1  0.50        -3.6068   1.0000                                                             
     3  2  1.50        -4.0817   0.0000                                                             
   Description                                                                                      
     l       E           TYP  RCUT    TYP  RCUT                                                     
     0     -9.4430752     23  1.500                                                                 
     0      0.8675899     23  1.500                                                                 
     1     -3.6067955     23  1.700                                                                 
     1      6.1086146     23  1.700                                                                 
     2     -4.0817478      7  1.700                                                                 
  local pseudopotential read in
  partial core-charges read in
  partial kinetic energy density read in
  atomic valenz-charges read in
  non local Contribution for L=           0  read in
    real space projection operators read in
  non local Contribution for L=           0  read in
    real space projection operators read in
  non local Contribution for L=           1  read in
    real space projection operators read in
  non local Contribution for L=           1  read in
    real space projection operators read in
    PAW grid and wavefunctions read in
 
   number of l-projection  operators is LMAX  =           4
   number of lm-projection operators is LMMAX =           8
 
  PAW_PBE B 06Sep2000                   :
 energy of atom  1       EATOM=  -71.1703
 kinetic energy error for atom=    0.0015 (will be added to EATOM!!)
 
 
 POSCAR: Borophene with lattice parameter 5.051
  positions in direct lattice
  velocities in cartesian coordinates
 exchange correlation table for  LEXCH =        8
   RHO(1)=    0.500       N(1)  =     2000
   RHO(2)=  100.500       N(2)  =     4000

 VTST: version 4.2, (08/11/21)

 CHAIN: initializing optimizer
 
 OPT: Using VASP Dynamics algorithm
 CHAIN: Read ICHAIN            0
 
 POSCAR: Borophene with lattice parameter 5.051
  positions in direct lattice
  velocities in cartesian coordinates
 


--------------------------------------------------------------------------------------------------------


 ion  position               nearest neighbor table
   1  0.669  0.000  0.100-   3 1.67   6 1.67   7 1.69   8 1.69   2 1.71
   2  0.331  0.000  0.100-   5 1.67   4 1.67   7 1.69   8 1.69   1 1.71
   3  0.000  0.331  0.100-   5 1.67   1 1.67   8 1.69   7 1.69   4 1.71
   4  0.000  0.669  0.100-   2 1.67   6 1.67   8 1.69   7 1.69   3 1.71
   5  0.331  0.331  0.100-   2 1.67   3 1.67   7 1.69   8 1.69   6 1.71
   6  0.669  0.669  0.100-   1 1.67   4 1.67   7 1.69   8 1.69   5 1.71
   7  0.667  0.333  0.100-   1 1.69   5 1.69   6 1.69   2 1.69   4 1.69   3 1.69
   8  0.333  0.667  0.100-   4 1.69   5 1.69   6 1.69   3 1.69   1 1.69   2 1.69
 
  LATTYP: Found a hexagonal cell.
 ALAT       =     5.0509997276
 C/A-ratio  =     2.9697091287
  
  Lattice vectors:
  
 A1 = (   4.3742940000,   2.5255000000,   0.0000000000)
 A2 = (  -4.3742940000,   2.5255000000,   0.0000000000)
 A3 = (   0.0000000000,   0.0000000000,  15.0000000000)


Analysis of symmetry for initial positions (statically):
=====================================================================
 Subroutine PRICEL returns:
 Original cell was already a primitive cell.
 

 Routine SETGRP: Setting up the symmetry group for a 
 hexagonal supercell.


 Subroutine GETGRP returns: Found  4 space group operations
 (whereof  1 operations were pure point group operations)
 out of a pool of 24 trial point group operations.


The static configuration has the point symmetry C_1 .
 The point group associated with its full space group is C_2h.


Analysis of symmetry for dynamics (positions and initial velocities):
=====================================================================
 Subroutine PRICEL returns:
 Original cell was already a primitive cell.
 

 Routine SETGRP: Setting up the symmetry group for a 
 hexagonal supercell.


 Subroutine GETGRP returns: Found  4 space group operations
 (whereof  1 operations were pure point group operations)
 out of a pool of 24 trial point group operations.


The dynamic configuration has the point symmetry C_1 .
 The point group associated with its full space group is C_2h.


 Subroutine INISYM returns: Found  4 space group operations
 (whereof  1 operations are pure point group operations),
 and found     1 'primitive' translations


----------------------------------------------------------------------------------------

                                     Primitive cell                                     

  volume of cell :     331.4184

  direct lattice vectors                    reciprocal lattice vectors
     4.374294000  2.525500000  0.000000000     0.114304160  0.197980598  0.000000000
    -4.374294000  2.525500000  0.000000000    -0.114304160  0.197980598  0.000000000
     0.000000000  0.000000000 15.000000000     0.000000000  0.000000000  0.066666667

  length of vectors
     5.050999728  5.050999728 15.000000000     0.228608307  0.228608307  0.066666667

  position of ions in fractional coordinates (direct lattice)
     0.668931733  1.000000000  0.100000000
     0.331067267  1.000000000  0.100000000
     1.000000000  0.331067267  0.100000000
     1.000000000  0.668931733  0.100000000
     0.331067267  0.331067267  0.100000000
     0.668931733  0.668931733  0.100000000
     0.666666000  0.333333000  0.099956110
     0.333333000  0.666666000  0.100043890

  ion indices of the primitive-cell ions
   primitive index   ion index
                 1           1
                 2           2
                 3           3
                 4           4
                 5           5
                 6           6
                 7           7
                 8           8

----------------------------------------------------------------------------------------

 
 
 KPOINTS: k-points                                

Automatic generation of k-mesh.
 Grid dimensions read from file:
 generate k-points for:   65   65    1

 Generating k-lattice:

  Cartesian coordinates                     Fractional coordinates (reciprocal lattice)
     0.001758526  0.003045855  0.000000000     0.015384615 -0.000000000  0.000000000
    -0.001758526  0.003045855  0.000000000    -0.000000000  0.015384615  0.000000000
     0.000000000  0.000000000  0.066666667     0.000000000  0.000000000  1.000000000

  Length of vectors
     0.003517051  0.003517051  0.066666667

  Shift w.r.t. Gamma in fractional coordinates (k-lattice)
     0.000000000  0.000000000  0.000000000

 
 Subroutine IBZKPT returns following result:
 ===========================================
 
 Found   1089 irreducible k-points:
 
 Following reciprocal coordinates:
            Coordinates               Weight
  0.000000  0.000000  0.000000      1.000000
  0.015385  0.000000  0.000000      4.000000
 -0.015385  0.015385  0.000000      2.000000
  0.030769  0.000000  0.000000      4.000000
 -0.030769  0.030769  0.000000      2.000000
  0.046154  0.000000  0.000000      4.000000
 -0.046154  0.046154  0.000000      2.000000
  0.061538  0.000000  0.000000      4.000000
 -0.061538  0.061538  0.000000      2.000000
  0.076923  0.000000  0.000000      4.000000
 -0.076923  0.076923  0.000000      2.000000
  0.092308  0.000000  0.000000      4.000000
 -0.092308  0.092308  0.000000      2.000000
  0.107692  0.000000  0.000000      4.000000
 -0.107692  0.107692  0.000000      2.000000
  0.123077  0.000000  0.000000      4.000000
 -0.123077  0.123077  0.000000      2.000000
  0.138462  0.000000  0.000000      4.000000
 -0.138462  0.138462  0.000000      2.000000
  0.153846 -0.000000  0.000000      4.000000
 -0.153846  0.153846  0.000000      2.000000
  0.169231  0.000000  0.000000      4.000000
 -0.169231  0.169231  0.000000      2.000000
  0.184615  0.000000  0.000000      4.000000
 -0.184615  0.184615  0.000000      2.000000
  0.200000  0.000000  0.000000      4.000000
 -0.200000  0.200000  0.000000      2.000000
  0.215385  0.000000  0.000000      4.000000
 -0.215385  0.215385  0.000000      2.000000
  0.230769  0.000000  0.000000      4.000000
 -0.230769  0.230769  0.000000      2.000000
  0.246154  0.000000  0.000000      4.000000
 -0.246154  0.246154  0.000000      2.000000
  0.261538  0.000000  0.000000      4.000000
 -0.261538  0.261538  0.000000      2.000000
  0.276923  0.000000  0.000000      4.000000
 -0.276923  0.276923  0.000000      2.000000
  0.292308 -0.000000  0.000000      4.000000
 -0.292308  0.292308  0.000000      2.000000
  0.307692 -0.000000  0.000000      4.000000
 -0.307692  0.307692  0.000000      2.000000
  0.323077  0.000000  0.000000      4.000000
 -0.323077  0.323077  0.000000      2.000000
  0.338462  0.000000  0.000000      4.000000
 -0.338462  0.338462  0.000000      2.000000
  0.353846  0.000000  0.000000      4.000000
 -0.353846  0.353846  0.000000      2.000000
  0.369231  0.000000  0.000000      4.000000
 -0.369231  0.369231  0.000000      2.000000
  0.384615  0.000000  0.000000      4.000000
 -0.384615  0.384615  0.000000      2.000000
  0.400000  0.000000  0.000000      4.000000
 -0.400000  0.400000  0.000000      2.000000
  0.415385  0.000000  0.000000      4.000000
 -0.415385  0.415385  0.000000      2.000000
  0.430769  0.000000  0.000000      4.000000
 -0.430769  0.430769  0.000000      2.000000
  0.446154  0.000000  0.000000      4.000000
 -0.446154  0.446154  0.000000      2.000000
  0.461538  0.000000  0.000000      4.000000
 -0.461538  0.461538  0.000000      2.000000
  0.476923  0.000000  0.000000      4.000000
 -0.476923  0.476923  0.000000      2.000000
  0.492308  0.000000  0.000000      4.000000
 -0.492308  0.492308  0.000000      2.000000
  0.015385  0.015385  0.000000      2.000000
 -0.015385  0.030769  0.000000      4.000000
  0.030769  0.015385  0.000000      4.000000
 -0.015385  0.046154  0.000000      4.000000
 -0.046154  0.030769  0.000000      4.000000
  0.046154  0.015385  0.000000      4.000000
 -0.015385  0.061538  0.000000      4.000000
 -0.061538  0.046154  0.000000      4.000000
  0.061538  0.015385  0.000000      4.000000
 -0.015385  0.076923  0.000000      4.000000
 -0.076923  0.061538  0.000000      4.000000
  0.076923  0.015385  0.000000      4.000000
 -0.015385  0.092308  0.000000      4.000000
 -0.092308  0.076923  0.000000      4.000000
  0.092308  0.015385  0.000000      4.000000
 -0.015385  0.107692  0.000000      4.000000
 -0.107692  0.092308  0.000000      4.000000
  0.107692  0.015385  0.000000      4.000000
 -0.015385  0.123077  0.000000      4.000000
 -0.123077  0.107692  0.000000      4.000000
  0.123077  0.015385  0.000000      4.000000
 -0.015385  0.138462  0.000000      4.000000
 -0.138462  0.123077  0.000000      4.000000
  0.138462  0.015385  0.000000      4.000000
 -0.015385  0.153846  0.000000      4.000000
 -0.153846  0.138462  0.000000      4.000000
  0.153846  0.015385  0.000000      4.000000
 -0.015385  0.169231  0.000000      4.000000
 -0.169231  0.153846  0.000000      4.000000
  0.169231  0.015385  0.000000      4.000000
 -0.015385  0.184615  0.000000      4.000000
 -0.184615  0.169231  0.000000      4.000000
  0.184615  0.015385  0.000000      4.000000
 -0.015385  0.200000  0.000000      4.000000
 -0.200000  0.184615  0.000000      4.000000
  0.200000  0.015385  0.000000      4.000000
 -0.015385  0.215385  0.000000      4.000000
 -0.215385  0.200000  0.000000      4.000000
  0.215385  0.015385  0.000000      4.000000
 -0.015385  0.230769  0.000000      4.000000
 -0.230769  0.215385  0.000000      4.000000
  0.230769  0.015385  0.000000      4.000000
 -0.015385  0.246154  0.000000      4.000000
 -0.246154  0.230769  0.000000      4.000000
  0.246154  0.015385  0.000000      4.000000
 -0.015385  0.261538  0.000000      4.000000
 -0.261538  0.246154  0.000000      4.000000
  0.261538  0.015385  0.000000      4.000000
 -0.015385  0.276923  0.000000      4.000000
 -0.276923  0.261538  0.000000      4.000000
  0.276923  0.015385  0.000000      4.000000
 -0.015385  0.292308  0.000000      4.000000
 -0.292308  0.276923  0.000000      4.000000
  0.292308  0.015385  0.000000      4.000000
 -0.015385  0.307692  0.000000      4.000000
 -0.307692  0.292308  0.000000      4.000000
  0.307692  0.015385  0.000000      4.000000
 -0.015385  0.323077  0.000000      4.000000
 -0.323077  0.307692  0.000000      4.000000
  0.323077  0.015385  0.000000      4.000000
 -0.015385  0.338462  0.000000      4.000000
 -0.338462  0.323077  0.000000      4.000000
  0.338462  0.015385  0.000000      4.000000
 -0.015385  0.353846  0.000000      4.000000
 -0.353846  0.338462  0.000000      4.000000
  0.353846  0.015385  0.000000      4.000000
 -0.015385  0.369231  0.000000      4.000000
 -0.369231  0.353846  0.000000      4.000000
  0.369231  0.015385  0.000000      4.000000
 -0.015385  0.384615  0.000000      4.000000
 -0.384615  0.369231  0.000000      4.000000
  0.384615  0.015385  0.000000      4.000000
 -0.015385  0.400000  0.000000      4.000000
 -0.400000  0.384615  0.000000      4.000000
  0.400000  0.015385  0.000000      4.000000
 -0.015385  0.415385  0.000000      4.000000
 -0.415385  0.400000  0.000000      4.000000
  0.415385  0.015385  0.000000      4.000000
 -0.015385  0.430769  0.000000      4.000000
 -0.430769  0.415385  0.000000      4.000000
  0.430769  0.015385  0.000000      4.000000
 -0.015385  0.446154  0.000000      4.000000
 -0.446154  0.430769  0.000000      4.000000
  0.446154  0.015385  0.000000      4.000000
 -0.015385  0.461538  0.000000      4.000000
 -0.461538  0.446154  0.000000      4.000000
  0.461538  0.015385  0.000000      4.000000
 -0.015385  0.476923  0.000000      4.000000
 -0.476923  0.461538  0.000000      4.000000
  0.476923  0.015385  0.000000      4.000000
 -0.015385  0.492308  0.000000      4.000000
 -0.492308  0.476923  0.000000      4.000000
  0.492308  0.015385  0.000000      4.000000
  0.492308  0.492308  0.000000      2.000000
  0.030769  0.030769  0.000000      2.000000
 -0.030769  0.061538  0.000000      4.000000
  0.046154  0.030769  0.000000      4.000000
 -0.030769  0.076923  0.000000      4.000000
 -0.076923  0.046154  0.000000      4.000000
  0.061538  0.030769  0.000000      4.000000
 -0.030769  0.092308  0.000000      4.000000
 -0.092308  0.061538  0.000000      4.000000
  0.076923  0.030769  0.000000      4.000000
 -0.030769  0.107692  0.000000      4.000000
 -0.107692  0.076923  0.000000      4.000000
  0.092308  0.030769  0.000000      4.000000
 -0.030769  0.123077  0.000000      4.000000
 -0.123077  0.092308  0.000000      4.000000
  0.107692  0.030769  0.000000      4.000000
 -0.030769  0.138462  0.000000      4.000000
 -0.138462  0.107692  0.000000      4.000000
  0.123077  0.030769  0.000000      4.000000
 -0.030769  0.153846  0.000000      4.000000
 -0.153846  0.123077  0.000000      4.000000
  0.138462  0.030769  0.000000      4.000000
 -0.030769  0.169231  0.000000      4.000000
 -0.169231  0.138462  0.000000      4.000000
  0.153846  0.030769  0.000000      4.000000
 -0.030769  0.184615  0.000000      4.000000
 -0.184615  0.153846  0.000000      4.000000
  0.169231  0.030769  0.000000      4.000000
 -0.030769  0.200000  0.000000      4.000000
 -0.200000  0.169231  0.000000      4.000000
  0.184615  0.030769  0.000000      4.000000
 -0.030769  0.215385  0.000000      4.000000
 -0.215385  0.184615  0.000000      4.000000
  0.200000  0.030769  0.000000      4.000000
 -0.030769  0.230769  0.000000      4.000000
 -0.230769  0.200000  0.000000      4.000000
  0.215385  0.030769  0.000000      4.000000
 -0.030769  0.246154  0.000000      4.000000
 -0.246154  0.215385  0.000000      4.000000
  0.230769  0.030769  0.000000      4.000000
 -0.030769  0.261538  0.000000      4.000000
 -0.261538  0.230769  0.000000      4.000000
  0.246154  0.030769  0.000000      4.000000
 -0.030769  0.276923  0.000000      4.000000
 -0.276923  0.246154  0.000000      4.000000
  0.261538  0.030769  0.000000      4.000000
 -0.030769  0.292308  0.000000      4.000000
 -0.292308  0.261538  0.000000      4.000000
  0.276923  0.030769  0.000000      4.000000
 -0.030769  0.307692  0.000000      4.000000
 -0.307692  0.276923  0.000000      4.000000
  0.292308  0.030769  0.000000      4.000000
 -0.030769  0.323077  0.000000      4.000000
 -0.323077  0.292308  0.000000      4.000000
  0.307692  0.030769  0.000000      4.000000
 -0.030769  0.338462  0.000000      4.000000
 -0.338462  0.307692  0.000000      4.000000
  0.323077  0.030769  0.000000      4.000000
 -0.030769  0.353846  0.000000      4.000000
 -0.353846  0.323077  0.000000      4.000000
  0.338462  0.030769  0.000000      4.000000
 -0.030769  0.369231  0.000000      4.000000
 -0.369231  0.338462  0.000000      4.000000
  0.353846  0.030769  0.000000      4.000000
 -0.030769  0.384615  0.000000      4.000000
 -0.384615  0.353846  0.000000      4.000000
  0.369231  0.030769  0.000000      4.000000
 -0.030769  0.400000  0.000000      4.000000
 -0.400000  0.369231  0.000000      4.000000
  0.384615  0.030769  0.000000      4.000000
 -0.030769  0.415385  0.000000      4.000000
 -0.415385  0.384615  0.000000      4.000000
  0.400000  0.030769  0.000000      4.000000
 -0.030769  0.430769  0.000000      4.000000
 -0.430769  0.400000  0.000000      4.000000
  0.415385  0.030769  0.000000      4.000000
 -0.030769  0.446154  0.000000      4.000000
 -0.446154  0.415385  0.000000      4.000000
  0.430769  0.030769  0.000000      4.000000
 -0.030769  0.461538  0.000000      4.000000
 -0.461538  0.430769  0.000000      4.000000
  0.446154  0.030769  0.000000      4.000000
 -0.030769  0.476923  0.000000      4.000000
 -0.476923  0.446154  0.000000      4.000000
  0.461538  0.030769  0.000000      4.000000
 -0.030769  0.492308  0.000000      4.000000
 -0.492308  0.461538  0.000000      4.000000
  0.476923  0.030769  0.000000      4.000000
 -0.030769 -0.492308  0.000000      4.000000
  0.492308  0.476923  0.000000      4.000000
  0.046154  0.046154  0.000000      2.000000
 -0.046154  0.092308  0.000000      4.000000
  0.061538  0.046154  0.000000      4.000000
 -0.046154  0.107692  0.000000      4.000000
 -0.107692  0.061538  0.000000      4.000000
  0.076923  0.046154  0.000000      4.000000
 -0.046154  0.123077  0.000000      4.000000
 -0.123077  0.076923  0.000000      4.000000
  0.092308  0.046154  0.000000      4.000000
 -0.046154  0.138462  0.000000      4.000000
 -0.138462  0.092308  0.000000      4.000000
  0.107692  0.046154  0.000000      4.000000
 -0.046154  0.153846  0.000000      4.000000
 -0.153846  0.107692  0.000000      4.000000
  0.123077  0.046154  0.000000      4.000000
 -0.046154  0.169231  0.000000      4.000000
 -0.169231  0.123077  0.000000      4.000000
  0.138462  0.046154  0.000000      4.000000
 -0.046154  0.184615  0.000000      4.000000
 -0.184615  0.138462  0.000000      4.000000
  0.153846  0.046154  0.000000      4.000000
 -0.046154  0.200000  0.000000      4.000000
 -0.200000  0.153846  0.000000      4.000000
  0.169231  0.046154  0.000000      4.000000
 -0.046154  0.215385  0.000000      4.000000
 -0.215385  0.169231  0.000000      4.000000
  0.184615  0.046154  0.000000      4.000000
 -0.046154  0.230769  0.000000      4.000000
 -0.230769  0.184615  0.000000      4.000000
  0.200000  0.046154  0.000000      4.000000
 -0.046154  0.246154  0.000000      4.000000
 -0.246154  0.200000  0.000000      4.000000
  0.215385  0.046154  0.000000      4.000000
 -0.046154  0.261538  0.000000      4.000000
 -0.261538  0.215385  0.000000      4.000000
  0.230769  0.046154  0.000000      4.000000
 -0.046154  0.276923  0.000000      4.000000
 -0.276923  0.230769  0.000000      4.000000
  0.246154  0.046154  0.000000      4.000000
 -0.046154  0.292308  0.000000      4.000000
 -0.292308  0.246154  0.000000      4.000000
  0.261538  0.046154  0.000000      4.000000
 -0.046154  0.307692  0.000000      4.000000
 -0.307692  0.261538  0.000000      4.000000
  0.276923  0.046154  0.000000      4.000000
 -0.046154  0.323077  0.000000      4.000000
 -0.323077  0.276923  0.000000      4.000000
  0.292308  0.046154  0.000000      4.000000
 -0.046154  0.338462  0.000000      4.000000
 -0.338462  0.292308  0.000000      4.000000
  0.307692  0.046154  0.000000      4.000000
 -0.046154  0.353846  0.000000      4.000000
 -0.353846  0.307692  0.000000      4.000000
  0.323077  0.046154  0.000000      4.000000
 -0.046154  0.369231  0.000000      4.000000
 -0.369231  0.323077  0.000000      4.000000
  0.338462  0.046154  0.000000      4.000000
 -0.046154  0.384615  0.000000      4.000000
 -0.384615  0.338462  0.000000      4.000000
  0.353846  0.046154  0.000000      4.000000
 -0.046154  0.400000  0.000000      4.000000
 -0.400000  0.353846  0.000000      4.000000
  0.369231  0.046154  0.000000      4.000000
 -0.046154  0.415385  0.000000      4.000000
 -0.415385  0.369231  0.000000      4.000000
  0.384615  0.046154  0.000000      4.000000
 -0.046154  0.430769  0.000000      4.000000
 -0.430769  0.384615  0.000000      4.000000
  0.400000  0.046154  0.000000      4.000000
 -0.046154  0.446154  0.000000      4.000000
 -0.446154  0.400000  0.000000      4.000000
  0.415385  0.046154  0.000000      4.000000
 -0.046154  0.461538  0.000000      4.000000
 -0.461538  0.415385  0.000000      4.000000
  0.430769  0.046154  0.000000      4.000000
 -0.046154  0.476923  0.000000      4.000000
 -0.476923  0.430769  0.000000      4.000000
  0.446154  0.046154  0.000000      4.000000
 -0.046154  0.492308  0.000000      4.000000
 -0.492308  0.446154  0.000000      4.000000
  0.461538  0.046154  0.000000      4.000000
 -0.046154 -0.492308  0.000000      4.000000
  0.492308  0.461538  0.000000      4.000000
  0.476923  0.046154  0.000000      4.000000
  0.476923  0.476923  0.000000      2.000000
  0.061538  0.061538  0.000000      2.000000
 -0.061538  0.123077  0.000000      4.000000
  0.076923  0.061538  0.000000      4.000000
 -0.061538  0.138462  0.000000      4.000000
 -0.138462  0.076923  0.000000      4.000000
  0.092308  0.061538  0.000000      4.000000
 -0.061538  0.153846  0.000000      4.000000
 -0.153846  0.092308  0.000000      4.000000
  0.107692  0.061538  0.000000      4.000000
 -0.061538  0.169231  0.000000      4.000000
 -0.169231  0.107692  0.000000      4.000000
  0.123077  0.061538  0.000000      4.000000
 -0.061538  0.184615  0.000000      4.000000
 -0.184615  0.123077  0.000000      4.000000
  0.138462  0.061538  0.000000      4.000000
 -0.061538  0.200000  0.000000      4.000000
 -0.200000  0.138462  0.000000      4.000000
  0.153846  0.061538  0.000000      4.000000
 -0.061538  0.215385  0.000000      4.000000
 -0.215385  0.153846  0.000000      4.000000
  0.169231  0.061538  0.000000      4.000000
 -0.061538  0.230769  0.000000      4.000000
 -0.230769  0.169231  0.000000      4.000000
  0.184615  0.061538  0.000000      4.000000
 -0.061538  0.246154  0.000000      4.000000
 -0.246154  0.184615  0.000000      4.000000
  0.200000  0.061538  0.000000      4.000000
 -0.061538  0.261538  0.000000      4.000000
 -0.261538  0.200000  0.000000      4.000000
  0.215385  0.061538  0.000000      4.000000
 -0.061538  0.276923  0.000000      4.000000
 -0.276923  0.215385  0.000000      4.000000
  0.230769  0.061538  0.000000      4.000000
 -0.061538  0.292308  0.000000      4.000000
 -0.292308  0.230769  0.000000      4.000000
  0.246154  0.061538  0.000000      4.000000
 -0.061538  0.307692  0.000000      4.000000
 -0.307692  0.246154  0.000000      4.000000
  0.261538  0.061538  0.000000      4.000000
 -0.061538  0.323077  0.000000      4.000000
 -0.323077  0.261538  0.000000      4.000000
  0.276923  0.061538  0.000000      4.000000
 -0.061538  0.338462  0.000000      4.000000
 -0.338462  0.276923  0.000000      4.000000
  0.292308  0.061538  0.000000      4.000000
 -0.061538  0.353846  0.000000      4.000000
 -0.353846  0.292308  0.000000      4.000000
  0.307692  0.061538  0.000000      4.000000
 -0.061538  0.369231  0.000000      4.000000
 -0.369231  0.307692  0.000000      4.000000
  0.323077  0.061538  0.000000      4.000000
 -0.061538  0.384615  0.000000      4.000000
 -0.384615  0.323077  0.000000      4.000000
  0.338462  0.061538  0.000000      4.000000
 -0.061538  0.400000  0.000000      4.000000
 -0.400000  0.338462  0.000000      4.000000
  0.353846  0.061538  0.000000      4.000000
 -0.061538  0.415385  0.000000      4.000000
 -0.415385  0.353846  0.000000      4.000000
  0.369231  0.061538  0.000000      4.000000
 -0.061538  0.430769  0.000000      4.000000
 -0.430769  0.369231  0.000000      4.000000
  0.384615  0.061538  0.000000      4.000000
 -0.061538  0.446154  0.000000      4.000000
 -0.446154  0.384615  0.000000      4.000000
  0.400000  0.061538  0.000000      4.000000
 -0.061538  0.461538  0.000000      4.000000
 -0.461538  0.400000  0.000000      4.000000
  0.415385  0.061538  0.000000      4.000000
 -0.061538  0.476923  0.000000      4.000000
 -0.476923  0.415385  0.000000      4.000000
  0.430769  0.061538  0.000000      4.000000
 -0.061538  0.492308  0.000000      4.000000
 -0.492308  0.430769  0.000000      4.000000
  0.446154  0.061538  0.000000      4.000000
 -0.061538 -0.492308  0.000000      4.000000
  0.492308  0.446154  0.000000      4.000000
  0.461538  0.061538  0.000000      4.000000
 -0.061538 -0.476923  0.000000      4.000000
  0.476923  0.461538  0.000000      4.000000
  0.076923  0.076923  0.000000      2.000000
 -0.076923  0.153846  0.000000      4.000000
  0.092308  0.076923  0.000000      4.000000
 -0.076923  0.169231  0.000000      4.000000
 -0.169231  0.092308  0.000000      4.000000
  0.107692  0.076923  0.000000      4.000000
 -0.076923  0.184615  0.000000      4.000000
 -0.184615  0.107692  0.000000      4.000000
  0.123077  0.076923  0.000000      4.000000
 -0.076923  0.200000  0.000000      4.000000
 -0.200000  0.123077  0.000000      4.000000
  0.138462  0.076923  0.000000      4.000000
 -0.076923  0.215385  0.000000      4.000000
 -0.215385  0.138462  0.000000      4.000000
  0.153846  0.076923  0.000000      4.000000
 -0.076923  0.230769  0.000000      4.000000
 -0.230769  0.153846  0.000000      4.000000
  0.169231  0.076923  0.000000      4.000000
 -0.076923  0.246154  0.000000      4.000000
 -0.246154  0.169231  0.000000      4.000000
  0.184615  0.076923  0.000000      4.000000
 -0.076923  0.261538  0.000000      4.000000
 -0.261538  0.184615  0.000000      4.000000
  0.200000  0.076923  0.000000      4.000000
 -0.076923  0.276923  0.000000      4.000000
 -0.276923  0.200000  0.000000      4.000000
  0.215385  0.076923  0.000000      4.000000
 -0.076923  0.292308  0.000000      4.000000
 -0.292308  0.215385  0.000000      4.000000
  0.230769  0.076923  0.000000      4.000000
 -0.076923  0.307692  0.000000      4.000000
 -0.307692  0.230769  0.000000      4.000000
  0.246154  0.076923  0.000000      4.000000
 -0.076923  0.323077  0.000000      4.000000
 -0.323077  0.246154  0.000000      4.000000
  0.261538  0.076923  0.000000      4.000000
 -0.076923  0.338462  0.000000      4.000000
 -0.338462  0.261538  0.000000      4.000000
  0.276923  0.076923  0.000000      4.000000
 -0.076923  0.353846  0.000000      4.000000
 -0.353846  0.276923  0.000000      4.000000
  0.292308  0.076923  0.000000      4.000000
 -0.076923  0.369231  0.000000      4.000000
 -0.369231  0.292308  0.000000      4.000000
  0.307692  0.076923  0.000000      4.000000
 -0.076923  0.384615  0.000000      4.000000
 -0.384615  0.307692  0.000000      4.000000
  0.323077  0.076923  0.000000      4.000000
 -0.076923  0.400000  0.000000      4.000000
 -0.400000  0.323077  0.000000      4.000000
  0.338462  0.076923  0.000000      4.000000
 -0.076923  0.415385  0.000000      4.000000
 -0.415385  0.338462  0.000000      4.000000
  0.353846  0.076923  0.000000      4.000000
 -0.076923  0.430769  0.000000      4.000000
 -0.430769  0.353846  0.000000      4.000000
  0.369231  0.076923  0.000000      4.000000
 -0.076923  0.446154  0.000000      4.000000
 -0.446154  0.369231  0.000000      4.000000
  0.384615  0.076923  0.000000      4.000000
 -0.076923  0.461538  0.000000      4.000000
 -0.461538  0.384615  0.000000      4.000000
  0.400000  0.076923  0.000000      4.000000
 -0.076923  0.476923  0.000000      4.000000
 -0.476923  0.400000  0.000000      4.000000
  0.415385  0.076923  0.000000      4.000000
 -0.076923  0.492308  0.000000      4.000000
 -0.492308  0.415385  0.000000      4.000000
  0.430769  0.076923  0.000000      4.000000
 -0.076923 -0.492308  0.000000      4.000000
  0.492308  0.430769  0.000000      4.000000
  0.446154  0.076923  0.000000      4.000000
 -0.076923 -0.476923  0.000000      4.000000
  0.476923  0.446154  0.000000      4.000000
  0.461538  0.076923  0.000000      4.000000
  0.461538  0.461538  0.000000      2.000000
  0.092308  0.092308  0.000000      2.000000
 -0.092308  0.184615  0.000000      4.000000
  0.107692  0.092308  0.000000      4.000000
 -0.092308  0.200000  0.000000      4.000000
 -0.200000  0.107692  0.000000      4.000000
  0.123077  0.092308  0.000000      4.000000
 -0.092308  0.215385  0.000000      4.000000
 -0.215385  0.123077  0.000000      4.000000
  0.138462  0.092308  0.000000      4.000000
 -0.092308  0.230769  0.000000      4.000000
 -0.230769  0.138462  0.000000      4.000000
  0.153846  0.092308  0.000000      4.000000
 -0.092308  0.246154  0.000000      4.000000
 -0.246154  0.153846  0.000000      4.000000
  0.169231  0.092308  0.000000      4.000000
 -0.092308  0.261538  0.000000      4.000000
 -0.261538  0.169231  0.000000      4.000000
  0.184615  0.092308  0.000000      4.000000
 -0.092308  0.276923  0.000000      4.000000
 -0.276923  0.184615  0.000000      4.000000
  0.200000  0.092308  0.000000      4.000000
 -0.092308  0.292308  0.000000      4.000000
 -0.292308  0.200000  0.000000      4.000000
  0.215385  0.092308  0.000000      4.000000
 -0.092308  0.307692  0.000000      4.000000
 -0.307692  0.215385  0.000000      4.000000
  0.230769  0.092308  0.000000      4.000000
 -0.092308  0.323077  0.000000      4.000000
 -0.323077  0.230769  0.000000      4.000000
  0.246154  0.092308  0.000000      4.000000
 -0.092308  0.338462  0.000000      4.000000
 -0.338462  0.246154  0.000000      4.000000
  0.261538  0.092308  0.000000      4.000000
 -0.092308  0.353846  0.000000      4.000000
 -0.353846  0.261538  0.000000      4.000000
  0.276923  0.092308  0.000000      4.000000
 -0.092308  0.369231  0.000000      4.000000
 -0.369231  0.276923  0.000000      4.000000
  0.292308  0.092308  0.000000      4.000000
 -0.092308  0.384615  0.000000      4.000000
 -0.384615  0.292308  0.000000      4.000000
  0.307692  0.092308  0.000000      4.000000
 -0.092308  0.400000  0.000000      4.000000
 -0.400000  0.307692  0.000000      4.000000
  0.323077  0.092308  0.000000      4.000000
 -0.092308  0.415385  0.000000      4.000000
 -0.415385  0.323077  0.000000      4.000000
  0.338462  0.092308  0.000000      4.000000
 -0.092308  0.430769  0.000000      4.000000
 -0.430769  0.338462  0.000000      4.000000
  0.353846  0.092308  0.000000      4.000000
 -0.092308  0.446154  0.000000      4.000000
 -0.446154  0.353846  0.000000      4.000000
  0.369231  0.092308  0.000000      4.000000
 -0.092308  0.461538  0.000000      4.000000
 -0.461538  0.369231  0.000000      4.000000
  0.384615  0.092308  0.000000      4.000000
 -0.092308  0.476923  0.000000      4.000000
 -0.476923  0.384615  0.000000      4.000000
  0.400000  0.092308  0.000000      4.000000
 -0.092308  0.492308  0.000000      4.000000
 -0.492308  0.400000  0.000000      4.000000
  0.415385  0.092308  0.000000      4.000000
 -0.092308 -0.492308  0.000000      4.000000
  0.492308  0.415385  0.000000      4.000000
  0.430769  0.092308  0.000000      4.000000
 -0.092308 -0.476923  0.000000      4.000000
  0.476923  0.430769  0.000000      4.000000
  0.446154  0.092308  0.000000      4.000000
 -0.092308 -0.461538  0.000000      4.000000
  0.461538  0.446154  0.000000      4.000000
  0.107692  0.107692  0.000000      2.000000
 -0.107692  0.215385  0.000000      4.000000
  0.123077  0.107692  0.000000      4.000000
 -0.107692  0.230769  0.000000      4.000000
 -0.230769  0.123077  0.000000      4.000000
  0.138462  0.107692  0.000000      4.000000
 -0.107692  0.246154  0.000000      4.000000
 -0.246154  0.138462  0.000000      4.000000
  0.153846  0.107692  0.000000      4.000000
 -0.107692  0.261538  0.000000      4.000000
 -0.261538  0.153846  0.000000      4.000000
  0.169231  0.107692  0.000000      4.000000
 -0.107692  0.276923  0.000000      4.000000
 -0.276923  0.169231  0.000000      4.000000
  0.184615  0.107692  0.000000      4.000000
 -0.107692  0.292308  0.000000      4.000000
 -0.292308  0.184615  0.000000      4.000000
  0.200000  0.107692  0.000000      4.000000
 -0.107692  0.307692  0.000000      4.000000
 -0.307692  0.200000  0.000000      4.000000
  0.215385  0.107692  0.000000      4.000000
 -0.107692  0.323077  0.000000      4.000000
 -0.323077  0.215385  0.000000      4.000000
  0.230769  0.107692  0.000000      4.000000
 -0.107692  0.338462  0.000000      4.000000
 -0.338462  0.230769  0.000000      4.000000
  0.246154  0.107692  0.000000      4.000000
 -0.107692  0.353846  0.000000      4.000000
 -0.353846  0.246154  0.000000      4.000000
  0.261538  0.107692  0.000000      4.000000
 -0.107692  0.369231  0.000000      4.000000
 -0.369231  0.261538  0.000000      4.000000
  0.276923  0.107692  0.000000      4.000000
 -0.107692  0.384615  0.000000      4.000000
 -0.384615  0.276923  0.000000      4.000000
  0.292308  0.107692  0.000000      4.000000
 -0.107692  0.400000  0.000000      4.000000
 -0.400000  0.292308  0.000000      4.000000
  0.307692  0.107692  0.000000      4.000000
 -0.107692  0.415385  0.000000      4.000000
 -0.415385  0.307692  0.000000      4.000000
  0.323077  0.107692  0.000000      4.000000
 -0.107692  0.430769  0.000000      4.000000
 -0.430769  0.323077  0.000000      4.000000
  0.338462  0.107692  0.000000      4.000000
 -0.107692  0.446154  0.000000      4.000000
 -0.446154  0.338462  0.000000      4.000000
  0.353846  0.107692  0.000000      4.000000
 -0.107692  0.461538  0.000000      4.000000
 -0.461538  0.353846  0.000000      4.000000
  0.369231  0.107692  0.000000      4.000000
 -0.107692  0.476923  0.000000      4.000000
 -0.476923  0.369231  0.000000      4.000000
  0.384615  0.107692  0.000000      4.000000
 -0.107692  0.492308  0.000000      4.000000
 -0.492308  0.384615  0.000000      4.000000
  0.400000  0.107692  0.000000      4.000000
 -0.107692 -0.492308  0.000000      4.000000
  0.492308  0.400000  0.000000      4.000000
  0.415385  0.107692  0.000000      4.000000
 -0.107692 -0.476923  0.000000      4.000000
  0.476923  0.415385  0.000000      4.000000
  0.430769  0.107692  0.000000      4.000000
 -0.107692 -0.461538  0.000000      4.000000
  0.461538  0.430769  0.000000      4.000000
  0.446154  0.107692  0.000000      4.000000
  0.446154  0.446154  0.000000      2.000000
  0.123077  0.123077  0.000000      2.000000
 -0.123077  0.246154  0.000000      4.000000
  0.138462  0.123077  0.000000      4.000000
 -0.123077  0.261538  0.000000      4.000000
 -0.261538  0.138462  0.000000      4.000000
  0.153846  0.123077  0.000000      4.000000
 -0.123077  0.276923  0.000000      4.000000
 -0.276923  0.153846  0.000000      4.000000
  0.169231  0.123077  0.000000      4.000000
 -0.123077  0.292308  0.000000      4.000000
 -0.292308  0.169231  0.000000      4.000000
  0.184615  0.123077  0.000000      4.000000
 -0.123077  0.307692  0.000000      4.000000
 -0.307692  0.184615  0.000000      4.000000
  0.200000  0.123077  0.000000      4.000000
 -0.123077  0.323077  0.000000      4.000000
 -0.323077  0.200000  0.000000      4.000000
  0.215385  0.123077  0.000000      4.000000
 -0.123077  0.338462  0.000000      4.000000
 -0.338462  0.215385  0.000000      4.000000
  0.230769  0.123077  0.000000      4.000000
 -0.123077  0.353846  0.000000      4.000000
 -0.353846  0.230769  0.000000      4.000000
  0.246154  0.123077  0.000000      4.000000
 -0.123077  0.369231  0.000000      4.000000
 -0.369231  0.246154  0.000000      4.000000
  0.261538  0.123077  0.000000      4.000000
 -0.123077  0.384615  0.000000      4.000000
 -0.384615  0.261538  0.000000      4.000000
  0.276923  0.123077  0.000000      4.000000
 -0.123077  0.400000  0.000000      4.000000
 -0.400000  0.276923  0.000000      4.000000
  0.292308  0.123077  0.000000      4.000000
 -0.123077  0.415385  0.000000      4.000000
 -0.415385  0.292308  0.000000      4.000000
  0.307692  0.123077  0.000000      4.000000
 -0.123077  0.430769  0.000000      4.000000
 -0.430769  0.307692  0.000000      4.000000
  0.323077  0.123077  0.000000      4.000000
 -0.123077  0.446154  0.000000      4.000000
 -0.446154  0.323077  0.000000      4.000000
  0.338462  0.123077  0.000000      4.000000
 -0.123077  0.461538  0.000000      4.000000
 -0.461538  0.338462  0.000000      4.000000
  0.353846  0.123077  0.000000      4.000000
 -0.123077  0.476923  0.000000      4.000000
 -0.476923  0.353846  0.000000      4.000000
  0.369231  0.123077  0.000000      4.000000
 -0.123077  0.492308  0.000000      4.000000
 -0.492308  0.369231  0.000000      4.000000
  0.384615  0.123077  0.000000      4.000000
 -0.123077 -0.492308  0.000000      4.000000
  0.492308  0.384615  0.000000      4.000000
  0.400000  0.123077  0.000000      4.000000
 -0.123077 -0.476923  0.000000      4.000000
  0.476923  0.400000  0.000000      4.000000
  0.415385  0.123077  0.000000      4.000000
 -0.123077 -0.461538  0.000000      4.000000
  0.461538  0.415385  0.000000      4.000000
  0.430769  0.123077  0.000000      4.000000
 -0.123077 -0.446154  0.000000      4.000000
  0.446154  0.430769  0.000000      4.000000
  0.138462  0.138462  0.000000      2.000000
 -0.138462  0.276923  0.000000      4.000000
  0.153846  0.138462  0.000000      4.000000
 -0.138462  0.292308  0.000000      4.000000
 -0.292308  0.153846  0.000000      4.000000
  0.169231  0.138462  0.000000      4.000000
 -0.138462  0.307692  0.000000      4.000000
 -0.307692  0.169231  0.000000      4.000000
  0.184615  0.138462  0.000000      4.000000
 -0.138462  0.323077  0.000000      4.000000
 -0.323077  0.184615  0.000000      4.000000
  0.200000  0.138462  0.000000      4.000000
 -0.138462  0.338462  0.000000      4.000000
 -0.338462  0.200000  0.000000      4.000000
  0.215385  0.138462  0.000000      4.000000
 -0.138462  0.353846  0.000000      4.000000
 -0.353846  0.215385  0.000000      4.000000
  0.230769  0.138462  0.000000      4.000000
 -0.138462  0.369231  0.000000      4.000000
 -0.369231  0.230769  0.000000      4.000000
  0.246154  0.138462  0.000000      4.000000
 -0.138462  0.384615  0.000000      4.000000
 -0.384615  0.246154  0.000000      4.000000
  0.261538  0.138462  0.000000      4.000000
 -0.138462  0.400000  0.000000      4.000000
 -0.400000  0.261538  0.000000      4.000000
  0.276923  0.138462  0.000000      4.000000
 -0.138462  0.415385  0.000000      4.000000
 -0.415385  0.276923  0.000000      4.000000
  0.292308  0.138462  0.000000      4.000000
 -0.138462  0.430769  0.000000      4.000000
 -0.430769  0.292308  0.000000      4.000000
  0.307692  0.138462  0.000000      4.000000
 -0.138462  0.446154  0.000000      4.000000
 -0.446154  0.307692  0.000000      4.000000
  0.323077  0.138462  0.000000      4.000000
 -0.138462  0.461538  0.000000      4.000000
 -0.461538  0.323077  0.000000      4.000000
  0.338462  0.138462  0.000000      4.000000
 -0.138462  0.476923  0.000000      4.000000
 -0.476923  0.338462  0.000000      4.000000
  0.353846  0.138462  0.000000      4.000000
 -0.138462  0.492308  0.000000      4.000000
 -0.492308  0.353846  0.000000      4.000000
  0.369231  0.138462  0.000000      4.000000
 -0.138462 -0.492308  0.000000      4.000000
  0.492308  0.369231  0.000000      4.000000
  0.384615  0.138462  0.000000      4.000000
 -0.138462 -0.476923  0.000000      4.000000
  0.476923  0.384615  0.000000      4.000000
  0.400000  0.138462  0.000000      4.000000
 -0.138462 -0.461538  0.000000      4.000000
  0.461538  0.400000  0.000000      4.000000
  0.415385  0.138462  0.000000      4.000000
 -0.138462 -0.446154  0.000000      4.000000
  0.446154  0.415385  0.000000      4.000000
  0.430769  0.138462  0.000000      4.000000
  0.430769  0.430769  0.000000      2.000000
  0.153846  0.153846  0.000000      2.000000
 -0.153846  0.307692  0.000000      4.000000
  0.169231  0.153846  0.000000      4.000000
 -0.153846  0.323077  0.000000      4.000000
 -0.323077  0.169231  0.000000      4.000000
  0.184615  0.153846  0.000000      4.000000
 -0.153846  0.338462  0.000000      4.000000
 -0.338462  0.184615  0.000000      4.000000
  0.200000  0.153846  0.000000      4.000000
 -0.153846  0.353846  0.000000      4.000000
 -0.353846  0.200000  0.000000      4.000000
  0.215385  0.153846  0.000000      4.000000
 -0.153846  0.369231  0.000000      4.000000
 -0.369231  0.215385  0.000000      4.000000
  0.230769  0.153846  0.000000      4.000000
 -0.153846  0.384615  0.000000      4.000000
 -0.384615  0.230769  0.000000      4.000000
  0.246154  0.153846  0.000000      4.000000
 -0.153846  0.400000  0.000000      4.000000
 -0.400000  0.246154  0.000000      4.000000
  0.261538  0.153846  0.000000      4.000000
 -0.153846  0.415385  0.000000      4.000000
 -0.415385  0.261538  0.000000      4.000000
  0.276923  0.153846  0.000000      4.000000
 -0.153846  0.430769  0.000000      4.000000
 -0.430769  0.276923  0.000000      4.000000
  0.292308  0.153846  0.000000      4.000000
 -0.153846  0.446154  0.000000      4.000000
 -0.446154  0.292308  0.000000      4.000000
  0.307692  0.153846  0.000000      4.000000
 -0.153846  0.461538  0.000000      4.000000
 -0.461538  0.307692  0.000000      4.000000
  0.323077  0.153846  0.000000      4.000000
 -0.153846  0.476923  0.000000      4.000000
 -0.476923  0.323077  0.000000      4.000000
  0.338462  0.153846  0.000000      4.000000
 -0.153846  0.492308  0.000000      4.000000
 -0.492308  0.338462  0.000000      4.000000
  0.353846  0.153846  0.000000      4.000000
 -0.153846 -0.492308  0.000000      4.000000
  0.492308  0.353846  0.000000      4.000000
  0.369231  0.153846  0.000000      4.000000
 -0.153846 -0.476923  0.000000      4.000000
  0.476923  0.369231  0.000000      4.000000
  0.384615  0.153846  0.000000      4.000000
 -0.153846 -0.461538  0.000000      4.000000
  0.461538  0.384615  0.000000      4.000000
  0.400000  0.153846  0.000000      4.000000
 -0.153846 -0.446154  0.000000      4.000000
  0.446154  0.400000  0.000000      4.000000
  0.415385  0.153846  0.000000      4.000000
 -0.153846 -0.430769  0.000000      4.000000
  0.430769  0.415385  0.000000      4.000000
  0.169231  0.169231  0.000000      2.000000
 -0.169231  0.338462  0.000000      4.000000
  0.184615  0.169231  0.000000      4.000000
 -0.169231  0.353846  0.000000      4.000000
 -0.353846  0.184615  0.000000      4.000000
  0.200000  0.169231  0.000000      4.000000
 -0.169231  0.369231  0.000000      4.000000
 -0.369231  0.200000  0.000000      4.000000
  0.215385  0.169231  0.000000      4.000000
 -0.169231  0.384615  0.000000      4.000000
 -0.384615  0.215385  0.000000      4.000000
  0.230769  0.169231  0.000000      4.000000
 -0.169231  0.400000  0.000000      4.000000
 -0.400000  0.230769  0.000000      4.000000
  0.246154  0.169231  0.000000      4.000000
 -0.169231  0.415385  0.000000      4.000000
 -0.415385  0.246154  0.000000      4.000000
  0.261538  0.169231  0.000000      4.000000
 -0.169231  0.430769  0.000000      4.000000
 -0.430769  0.261538  0.000000      4.000000
  0.276923  0.169231  0.000000      4.000000
 -0.169231  0.446154  0.000000      4.000000
 -0.446154  0.276923  0.000000      4.000000
  0.292308  0.169231  0.000000      4.000000
 -0.169231  0.461538  0.000000      4.000000
 -0.461538  0.292308  0.000000      4.000000
  0.307692  0.169231  0.000000      4.000000
 -0.169231  0.476923  0.000000      4.000000
 -0.476923  0.307692  0.000000      4.000000
  0.323077  0.169231  0.000000      4.000000
 -0.169231  0.492308  0.000000      4.000000
 -0.492308  0.323077  0.000000      4.000000
  0.338462  0.169231  0.000000      4.000000
 -0.169231 -0.492308  0.000000      4.000000
  0.492308  0.338462  0.000000      4.000000
  0.353846  0.169231  0.000000      4.000000
 -0.169231 -0.476923  0.000000      4.000000
  0.476923  0.353846  0.000000      4.000000
  0.369231  0.169231  0.000000      4.000000
 -0.169231 -0.461538  0.000000      4.000000
  0.461538  0.369231  0.000000      4.000000
  0.384615  0.169231  0.000000      4.000000
 -0.169231 -0.446154  0.000000      4.000000
  0.446154  0.384615  0.000000      4.000000
  0.400000  0.169231  0.000000      4.000000
 -0.169231 -0.430769  0.000000      4.000000
  0.430769  0.400000  0.000000      4.000000
  0.415385  0.169231  0.000000      4.000000
  0.415385  0.415385  0.000000      2.000000
  0.184615  0.184615  0.000000      2.000000
 -0.184615  0.369231  0.000000      4.000000
  0.200000  0.184615  0.000000      4.000000
 -0.184615  0.384615  0.000000      4.000000
 -0.384615  0.200000  0.000000      4.000000
  0.215385  0.184615  0.000000      4.000000
 -0.184615  0.400000  0.000000      4.000000
 -0.400000  0.215385  0.000000      4.000000
  0.230769  0.184615  0.000000      4.000000
 -0.184615  0.415385  0.000000      4.000000
 -0.415385  0.230769  0.000000      4.000000
  0.246154  0.184615  0.000000      4.000000
 -0.184615  0.430769  0.000000      4.000000
 -0.430769  0.246154  0.000000      4.000000
  0.261538  0.184615  0.000000      4.000000
 -0.184615  0.446154  0.000000      4.000000
 -0.446154  0.261538  0.000000      4.000000
  0.276923  0.184615  0.000000      4.000000
 -0.184615  0.461538  0.000000      4.000000
 -0.461538  0.276923  0.000000      4.000000
  0.292308  0.184615  0.000000      4.000000
 -0.184615  0.476923  0.000000      4.000000
 -0.476923  0.292308  0.000000      4.000000
  0.307692  0.184615  0.000000      4.000000
 -0.184615  0.492308  0.000000      4.000000
 -0.492308  0.307692  0.000000      4.000000
  0.323077  0.184615  0.000000      4.000000
 -0.184615 -0.492308  0.000000      4.000000
  0.492308  0.323077  0.000000      4.000000
  0.338462  0.184615  0.000000      4.000000
 -0.184615 -0.476923  0.000000      4.000000
  0.476923  0.338462  0.000000      4.000000
  0.353846  0.184615  0.000000      4.000000
 -0.184615 -0.461538  0.000000      4.000000
  0.461538  0.353846  0.000000      4.000000
  0.369231  0.184615  0.000000      4.000000
 -0.184615 -0.446154  0.000000      4.000000
  0.446154  0.369231  0.000000      4.000000
  0.384615  0.184615  0.000000      4.000000
 -0.184615 -0.430769  0.000000      4.000000
  0.430769  0.384615  0.000000      4.000000
  0.400000  0.184615  0.000000      4.000000
 -0.184615 -0.415385  0.000000      4.000000
  0.415385  0.400000  0.000000      4.000000
  0.200000  0.200000  0.000000      2.000000
 -0.200000  0.400000  0.000000      4.000000
  0.215385  0.200000  0.000000      4.000000
 -0.200000  0.415385  0.000000      4.000000
 -0.415385  0.215385  0.000000      4.000000
  0.230769  0.200000  0.000000      4.000000
 -0.200000  0.430769  0.000000      4.000000
 -0.430769  0.230769  0.000000      4.000000
  0.246154  0.200000  0.000000      4.000000
 -0.200000  0.446154  0.000000      4.000000
 -0.446154  0.246154  0.000000      4.000000
  0.261538  0.200000  0.000000      4.000000
 -0.200000  0.461538  0.000000      4.000000
 -0.461538  0.261538  0.000000      4.000000
  0.276923  0.200000  0.000000      4.000000
 -0.200000  0.476923  0.000000      4.000000
 -0.476923  0.276923  0.000000      4.000000
  0.292308  0.200000  0.000000      4.000000
 -0.200000  0.492308  0.000000      4.000000
 -0.492308  0.292308  0.000000      4.000000
  0.307692  0.200000  0.000000      4.000000
 -0.200000 -0.492308  0.000000      4.000000
  0.492308  0.307692  0.000000      4.000000
  0.323077  0.200000  0.000000      4.000000
 -0.200000 -0.476923  0.000000      4.000000
  0.476923  0.323077  0.000000      4.000000
  0.338462  0.200000  0.000000      4.000000
 -0.200000 -0.461538  0.000000      4.000000
  0.461538  0.338462  0.000000      4.000000
  0.353846  0.200000  0.000000      4.000000
 -0.200000 -0.446154  0.000000      4.000000
  0.446154  0.353846  0.000000      4.000000
  0.369231  0.200000  0.000000      4.000000
 -0.200000 -0.430769  0.000000      4.000000
  0.430769  0.369231  0.000000      4.000000
  0.384615  0.200000  0.000000      4.000000
 -0.200000 -0.415385  0.000000      4.000000
  0.415385  0.384615  0.000000      4.000000
  0.400000  0.200000  0.000000      4.000000
  0.400000  0.400000  0.000000      2.000000
  0.215385  0.215385  0.000000      2.000000
 -0.215385  0.430769  0.000000      4.000000
  0.230769  0.215385  0.000000      4.000000
 -0.215385  0.446154  0.000000      4.000000
 -0.446154  0.230769  0.000000      4.000000
  0.246154  0.215385  0.000000      4.000000
 -0.215385  0.461538  0.000000      4.000000
 -0.461538  0.246154  0.000000      4.000000
  0.261538  0.215385  0.000000      4.000000
 -0.215385  0.476923  0.000000      4.000000
 -0.476923  0.261538  0.000000      4.000000
  0.276923  0.215385  0.000000      4.000000
 -0.215385  0.492308  0.000000      4.000000
 -0.492308  0.276923  0.000000      4.000000
  0.292308  0.215385  0.000000      4.000000
 -0.215385 -0.492308  0.000000      4.000000
  0.492308  0.292308  0.000000      4.000000
  0.307692  0.215385  0.000000      4.000000
 -0.215385 -0.476923  0.000000      4.000000
  0.476923  0.307692  0.000000      4.000000
  0.323077  0.215385  0.000000      4.000000
 -0.215385 -0.461538  0.000000      4.000000
  0.461538  0.323077  0.000000      4.000000
  0.338462  0.215385  0.000000      4.000000
 -0.215385 -0.446154  0.000000      4.000000
  0.446154  0.338462  0.000000      4.000000
  0.353846  0.215385  0.000000      4.000000
 -0.215385 -0.430769  0.000000      4.000000
  0.430769  0.353846  0.000000      4.000000
  0.369231  0.215385  0.000000      4.000000
 -0.215385 -0.415385  0.000000      4.000000
  0.415385  0.369231  0.000000      4.000000
  0.384615  0.215385  0.000000      4.000000
 -0.215385 -0.400000  0.000000      4.000000
  0.400000  0.384615  0.000000      4.000000
  0.230769  0.230769  0.000000      2.000000
 -0.230769  0.461538  0.000000      4.000000
  0.246154  0.230769  0.000000      4.000000
 -0.230769  0.476923  0.000000      4.000000
 -0.476923  0.246154  0.000000      4.000000
  0.261538  0.230769  0.000000      4.000000
 -0.230769  0.492308  0.000000      4.000000
 -0.492308  0.261538  0.000000      4.000000
  0.276923  0.230769  0.000000      4.000000
 -0.230769 -0.492308  0.000000      4.000000
  0.492308  0.276923  0.000000      4.000000
  0.292308  0.230769  0.000000      4.000000
 -0.230769 -0.476923  0.000000      4.000000
  0.476923  0.292308  0.000000      4.000000
  0.307692  0.230769  0.000000      4.000000
 -0.230769 -0.461538  0.000000      4.000000
  0.461538  0.307692  0.000000      4.000000
  0.323077  0.230769  0.000000      4.000000
 -0.230769 -0.446154  0.000000      4.000000
  0.446154  0.323077  0.000000      4.000000
  0.338462  0.230769  0.000000      4.000000
 -0.230769 -0.430769  0.000000      4.000000
  0.430769  0.338462  0.000000      4.000000
  0.353846  0.230769  0.000000      4.000000
 -0.230769 -0.415385  0.000000      4.000000
  0.415385  0.353846  0.000000      4.000000
  0.369231  0.230769  0.000000      4.000000
 -0.230769 -0.400000  0.000000      4.000000
  0.400000  0.369231  0.000000      4.000000
  0.384615  0.230769  0.000000      4.000000
  0.384615  0.384615  0.000000      2.000000
  0.246154  0.246154  0.000000      2.000000
 -0.246154  0.492308  0.000000      4.000000
  0.261538  0.246154  0.000000      4.000000
 -0.246154 -0.492308  0.000000      4.000000
  0.492308  0.261538  0.000000      4.000000
  0.276923  0.246154  0.000000      4.000000
 -0.246154 -0.476923  0.000000      4.000000
  0.476923  0.276923  0.000000      4.000000
  0.292308  0.246154  0.000000      4.000000
 -0.246154 -0.461538  0.000000      4.000000
  0.461538  0.292308  0.000000      4.000000
  0.307692  0.246154  0.000000      4.000000
 -0.246154 -0.446154  0.000000      4.000000
  0.446154  0.307692  0.000000      4.000000
  0.323077  0.246154  0.000000      4.000000
 -0.246154 -0.430769  0.000000      4.000000
  0.430769  0.323077  0.000000      4.000000
  0.338462  0.246154  0.000000      4.000000
 -0.246154 -0.415385  0.000000      4.000000
  0.415385  0.338462  0.000000      4.000000
  0.353846  0.246154  0.000000      4.000000
 -0.246154 -0.400000  0.000000      4.000000
  0.400000  0.353846  0.000000      4.000000
  0.369231  0.246154  0.000000      4.000000
 -0.246154 -0.384615  0.000000      4.000000
  0.384615  0.369231  0.000000      4.000000
  0.261538  0.261538  0.000000      2.000000
 -0.261538 -0.476923  0.000000      4.000000
  0.276923  0.261538  0.000000      4.000000
 -0.261538 -0.461538  0.000000      4.000000
  0.461538  0.276923  0.000000      4.000000
  0.292308  0.261538  0.000000      4.000000
 -0.261538 -0.446154  0.000000      4.000000
  0.446154  0.292308  0.000000      4.000000
  0.307692  0.261538  0.000000      4.000000
 -0.261538 -0.430769  0.000000      4.000000
  0.430769  0.307692  0.000000      4.000000
  0.323077  0.261538  0.000000      4.000000
 -0.261538 -0.415385  0.000000      4.000000
  0.415385  0.323077  0.000000      4.000000
  0.338462  0.261538  0.000000      4.000000
 -0.261538 -0.400000  0.000000      4.000000
  0.400000  0.338462  0.000000      4.000000
  0.353846  0.261538  0.000000      4.000000
 -0.261538 -0.384615  0.000000      4.000000
  0.384615  0.353846  0.000000      4.000000
  0.369231  0.261538  0.000000      4.000000
  0.369231  0.369231  0.000000      2.000000
  0.276923  0.276923  0.000000      2.000000
 -0.276923 -0.446154  0.000000      4.000000
  0.292308  0.276923  0.000000      4.000000
 -0.276923 -0.430769  0.000000      4.000000
  0.430769  0.292308  0.000000      4.000000
  0.307692  0.276923  0.000000      4.000000
 -0.276923 -0.415385  0.000000      4.000000
  0.415385  0.307692  0.000000      4.000000
  0.323077  0.276923  0.000000      4.000000
 -0.276923 -0.400000  0.000000      4.000000
  0.400000  0.323077  0.000000      4.000000
  0.338462  0.276923  0.000000      4.000000
 -0.276923 -0.384615  0.000000      4.000000
  0.384615  0.338462  0.000000      4.000000
  0.353846  0.276923  0.000000      4.000000
 -0.276923 -0.369231  0.000000      4.000000
  0.369231  0.353846  0.000000      4.000000
  0.292308  0.292308  0.000000      2.000000
 -0.292308 -0.415385  0.000000      4.000000
  0.307692  0.292308  0.000000      4.000000
 -0.292308 -0.400000  0.000000      4.000000
  0.400000  0.307692  0.000000      4.000000
  0.323077  0.292308  0.000000      4.000000
 -0.292308 -0.384615  0.000000      4.000000
  0.384615  0.323077  0.000000      4.000000
  0.338462  0.292308  0.000000      4.000000
 -0.292308 -0.369231  0.000000      4.000000
  0.369231  0.338462  0.000000      4.000000
  0.353846  0.292308  0.000000      4.000000
  0.353846  0.353846  0.000000      2.000000
  0.307692  0.307692  0.000000      2.000000
 -0.307692 -0.384615  0.000000      4.000000
  0.323077  0.307692  0.000000      4.000000
 -0.307692 -0.369231  0.000000      4.000000
  0.369231  0.323077  0.000000      4.000000
  0.338462  0.307692  0.000000      4.000000
 -0.307692 -0.353846  0.000000      4.000000
  0.353846  0.338462  0.000000      4.000000
  0.323077  0.323077  0.000000      2.000000
 -0.323077 -0.353846  0.000000      4.000000
  0.338462  0.323077  0.000000      4.000000
  0.338462  0.338462  0.000000      2.000000
 
 Following cartesian coordinates:
            Coordinates               Weight
  0.000000  0.000000  0.000000      1.000000
  0.001759  0.003046  0.000000      4.000000
 -0.003517 -0.000000  0.000000      2.000000
  0.003517  0.006092  0.000000      4.000000
 -0.007034 -0.000000  0.000000      2.000000
  0.005276  0.009138  0.000000      4.000000
 -0.010551 -0.000000  0.000000      2.000000
  0.007034  0.012183  0.000000      4.000000
 -0.014068 -0.000000  0.000000      2.000000
  0.008793  0.015229  0.000000      4.000000
 -0.017585  0.000000  0.000000      2.000000
  0.010551  0.018275  0.000000      4.000000
 -0.021102  0.000000  0.000000      2.000000
  0.012310  0.021321  0.000000      4.000000
 -0.024619 -0.000000  0.000000      2.000000
  0.014068  0.024367  0.000000      4.000000
 -0.028136 -0.000000  0.000000      2.000000
  0.015827  0.027413  0.000000      4.000000
 -0.031653  0.000000  0.000000      2.000000
  0.017585  0.030459  0.000000      4.000000
 -0.035171 -0.000000  0.000000      2.000000
  0.019344  0.033504  0.000000      4.000000
 -0.038688  0.000000  0.000000      2.000000
  0.021102  0.036550  0.000000      4.000000
 -0.042205  0.000000  0.000000      2.000000
  0.022861  0.039596  0.000000      4.000000
 -0.045722 -0.000000  0.000000      2.000000
  0.024619  0.042642  0.000000      4.000000
 -0.049239 -0.000000  0.000000      2.000000
  0.026378  0.045688  0.000000      4.000000
 -0.052756 -0.000000  0.000000      2.000000
  0.028136  0.048734  0.000000      4.000000
 -0.056273 -0.000000  0.000000      2.000000
  0.029895  0.051780  0.000000      4.000000
 -0.059790 -0.000000  0.000000      2.000000
  0.031653  0.054825  0.000000      4.000000
 -0.063307 -0.000000  0.000000      2.000000
  0.033412  0.057871  0.000000      4.000000
 -0.066824 -0.000000  0.000000      2.000000
  0.035171  0.060917  0.000000      4.000000
 -0.070341 -0.000000  0.000000      2.000000
  0.036929  0.063963  0.000000      4.000000
 -0.073858 -0.000000  0.000000      2.000000
  0.038688  0.067009  0.000000      4.000000
 -0.077375 -0.000000  0.000000      2.000000
  0.040446  0.070055  0.000000      4.000000
 -0.080892  0.000000  0.000000      2.000000
  0.042205  0.073101  0.000000      4.000000
 -0.084409  0.000000  0.000000      2.000000
  0.043963  0.076146  0.000000      4.000000
 -0.087926  0.000000  0.000000      2.000000
  0.045722  0.079192  0.000000      4.000000
 -0.091443 -0.000000  0.000000      2.000000
  0.047480  0.082238  0.000000      4.000000
 -0.094960  0.000000  0.000000      2.000000
  0.049239  0.085284  0.000000      4.000000
 -0.098477 -0.000000  0.000000      2.000000
  0.050997  0.088330  0.000000      4.000000
 -0.101994 -0.000000  0.000000      2.000000
  0.052756  0.091376  0.000000      4.000000
 -0.105512  0.000000  0.000000      2.000000
  0.054514  0.094422  0.000000      4.000000
 -0.109029  0.000000  0.000000      2.000000
  0.056273  0.097467  0.000000      4.000000
 -0.112546 -0.000000  0.000000      2.000000
  0.000000  0.006092  0.000000      2.000000
 -0.005276  0.003046  0.000000      4.000000
  0.001759  0.009138  0.000000      4.000000
 -0.007034  0.006092  0.000000      4.000000
 -0.008793 -0.003046  0.000000      4.000000
  0.003517  0.012183  0.000000      4.000000
 -0.008793  0.009138  0.000000      4.000000
 -0.012310 -0.003046  0.000000      4.000000
  0.005276  0.015229  0.000000      4.000000
 -0.010551  0.012183  0.000000      4.000000
 -0.015827 -0.003046  0.000000      4.000000
  0.007034  0.018275  0.000000      4.000000
 -0.012310  0.015229  0.000000      4.000000
 -0.019344 -0.003046  0.000000      4.000000
  0.008793  0.021321  0.000000      4.000000
 -0.014068  0.018275  0.000000      4.000000
 -0.022861 -0.003046  0.000000      4.000000
  0.010551  0.024367  0.000000      4.000000
 -0.015827  0.021321  0.000000      4.000000
 -0.026378 -0.003046  0.000000      4.000000
  0.012310  0.027413  0.000000      4.000000
 -0.017585  0.024367  0.000000      4.000000
 -0.029895 -0.003046  0.000000      4.000000
  0.014068  0.030459  0.000000      4.000000
 -0.019344  0.027413  0.000000      4.000000
 -0.033412 -0.003046  0.000000      4.000000
  0.015827  0.033504  0.000000      4.000000
 -0.021102  0.030459  0.000000      4.000000
 -0.036929 -0.003046  0.000000      4.000000
  0.017585  0.036550  0.000000      4.000000
 -0.022861  0.033504  0.000000      4.000000
 -0.040446 -0.003046  0.000000      4.000000
  0.019344  0.039596  0.000000      4.000000
 -0.024619  0.036550  0.000000      4.000000
 -0.043963 -0.003046  0.000000      4.000000
  0.021102  0.042642  0.000000      4.000000
 -0.026378  0.039596  0.000000      4.000000
 -0.047480 -0.003046  0.000000      4.000000
  0.022861  0.045688  0.000000      4.000000
 -0.028136  0.042642  0.000000      4.000000
 -0.050997 -0.003046  0.000000      4.000000
  0.024619  0.048734  0.000000      4.000000
 -0.029895  0.045688  0.000000      4.000000
 -0.054514 -0.003046  0.000000      4.000000
  0.026378  0.051780  0.000000      4.000000
 -0.031653  0.048734  0.000000      4.000000
 -0.058031 -0.003046  0.000000      4.000000
  0.028136  0.054825  0.000000      4.000000
 -0.033412  0.051780  0.000000      4.000000
 -0.061548 -0.003046  0.000000      4.000000
  0.029895  0.057871  0.000000      4.000000
 -0.035171  0.054825  0.000000      4.000000
 -0.065065 -0.003046  0.000000      4.000000
  0.031653  0.060917  0.000000      4.000000
 -0.036929  0.057871  0.000000      4.000000
 -0.068582 -0.003046  0.000000      4.000000
  0.033412  0.063963  0.000000      4.000000
 -0.038688  0.060917  0.000000      4.000000
 -0.072100 -0.003046  0.000000      4.000000
  0.035171  0.067009  0.000000      4.000000
 -0.040446  0.063963  0.000000      4.000000
 -0.075617 -0.003046  0.000000      4.000000
  0.036929  0.070055  0.000000      4.000000
 -0.042205  0.067009  0.000000      4.000000
 -0.079134 -0.003046  0.000000      4.000000
  0.038688  0.073101  0.000000      4.000000
 -0.043963  0.070055  0.000000      4.000000
 -0.082651 -0.003046  0.000000      4.000000
  0.040446  0.076146  0.000000      4.000000
 -0.045722  0.073101  0.000000      4.000000
 -0.086168 -0.003046  0.000000      4.000000
  0.042205  0.079192  0.000000      4.000000
 -0.047480  0.076146  0.000000      4.000000
 -0.089685 -0.003046  0.000000      4.000000
  0.043963  0.082238  0.000000      4.000000
 -0.049239  0.079192  0.000000      4.000000
 -0.093202 -0.003046  0.000000      4.000000
  0.045722  0.085284  0.000000      4.000000
 -0.050997  0.082238  0.000000      4.000000
 -0.096719 -0.003046  0.000000      4.000000
  0.047480  0.088330  0.000000      4.000000
 -0.052756  0.085284  0.000000      4.000000
 -0.100236 -0.003046  0.000000      4.000000
  0.049239  0.091376  0.000000      4.000000
 -0.054514  0.088330  0.000000      4.000000
 -0.103753 -0.003046  0.000000      4.000000
  0.050997  0.094422  0.000000      4.000000
 -0.056273  0.091376  0.000000      4.000000
 -0.107270 -0.003046  0.000000      4.000000
  0.052756  0.097467  0.000000      4.000000
 -0.058031  0.094422  0.000000      4.000000
 -0.110787 -0.003046  0.000000      4.000000
  0.054514  0.100513  0.000000      4.000000
  0.000000  0.194935  0.000000      2.000000
  0.000000  0.012183  0.000000      2.000000
 -0.010551  0.006092  0.000000      4.000000
  0.001759  0.015229  0.000000      4.000000
 -0.012310  0.009138  0.000000      4.000000
 -0.014068 -0.006092  0.000000      4.000000
  0.003517  0.018275  0.000000      4.000000
 -0.014068  0.012183  0.000000      4.000000
 -0.017585 -0.006092  0.000000      4.000000
  0.005276  0.021321  0.000000      4.000000
 -0.015827  0.015229  0.000000      4.000000
 -0.021102 -0.006092  0.000000      4.000000
  0.007034  0.024367  0.000000      4.000000
 -0.017585  0.018275  0.000000      4.000000
 -0.024619 -0.006092  0.000000      4.000000
  0.008793  0.027413  0.000000      4.000000
 -0.019344  0.021321  0.000000      4.000000
 -0.028136 -0.006092  0.000000      4.000000
  0.010551  0.030459  0.000000      4.000000
 -0.021102  0.024367  0.000000      4.000000
 -0.031653 -0.006092  0.000000      4.000000
  0.012310  0.033504  0.000000      4.000000
 -0.022861  0.027413  0.000000      4.000000
 -0.035171 -0.006092  0.000000      4.000000
  0.014068  0.036550  0.000000      4.000000
 -0.024619  0.030459  0.000000      4.000000
 -0.038688 -0.006092  0.000000      4.000000
  0.015827  0.039596  0.000000      4.000000
 -0.026378  0.033504  0.000000      4.000000
 -0.042205 -0.006092  0.000000      4.000000
  0.017585  0.042642  0.000000      4.000000
 -0.028136  0.036550  0.000000      4.000000
 -0.045722 -0.006092  0.000000      4.000000
  0.019344  0.045688  0.000000      4.000000
 -0.029895  0.039596  0.000000      4.000000
 -0.049239 -0.006092  0.000000      4.000000
  0.021102  0.048734  0.000000      4.000000
 -0.031653  0.042642  0.000000      4.000000
 -0.052756 -0.006092  0.000000      4.000000
  0.022861  0.051780  0.000000      4.000000
 -0.033412  0.045688  0.000000      4.000000
 -0.056273 -0.006092  0.000000      4.000000
  0.024619  0.054825  0.000000      4.000000
 -0.035171  0.048734  0.000000      4.000000
 -0.059790 -0.006092  0.000000      4.000000
  0.026378  0.057871  0.000000      4.000000
 -0.036929  0.051780  0.000000      4.000000
 -0.063307 -0.006092  0.000000      4.000000
  0.028136  0.060917  0.000000      4.000000
 -0.038688  0.054825  0.000000      4.000000
 -0.066824 -0.006092  0.000000      4.000000
  0.029895  0.063963  0.000000      4.000000
 -0.040446  0.057871  0.000000      4.000000
 -0.070341 -0.006092  0.000000      4.000000
  0.031653  0.067009  0.000000      4.000000
 -0.042205  0.060917  0.000000      4.000000
 -0.073858 -0.006092  0.000000      4.000000
  0.033412  0.070055  0.000000      4.000000
 -0.043963  0.063963  0.000000      4.000000
 -0.077375 -0.006092  0.000000      4.000000
  0.035171  0.073101  0.000000      4.000000
 -0.045722  0.067009  0.000000      4.000000
 -0.080892 -0.006092  0.000000      4.000000
  0.036929  0.076146  0.000000      4.000000
 -0.047480  0.070055  0.000000      4.000000
 -0.084409 -0.006092  0.000000      4.000000
  0.038688  0.079192  0.000000      4.000000
 -0.049239  0.073101  0.000000      4.000000
 -0.087926 -0.006092  0.000000      4.000000
  0.040446  0.082238  0.000000      4.000000
 -0.050997  0.076146  0.000000      4.000000
 -0.091443 -0.006092  0.000000      4.000000
  0.042205  0.085284  0.000000      4.000000
 -0.052756  0.079192  0.000000      4.000000
 -0.094960 -0.006092  0.000000      4.000000
  0.043963  0.088330  0.000000      4.000000
 -0.054514  0.082238  0.000000      4.000000
 -0.098477 -0.006092  0.000000      4.000000
  0.045722  0.091376  0.000000      4.000000
 -0.056273  0.085284  0.000000      4.000000
 -0.101994 -0.006092  0.000000      4.000000
  0.047480  0.094422  0.000000      4.000000
 -0.058031  0.088330  0.000000      4.000000
 -0.105512 -0.006092  0.000000      4.000000
  0.049239  0.097467  0.000000      4.000000
 -0.059790  0.091376  0.000000      4.000000
 -0.109029 -0.006092  0.000000      4.000000
  0.050997  0.100513  0.000000      4.000000
  0.052756 -0.103559  0.000000      4.000000
  0.001759  0.191889  0.000000      4.000000
 -0.000000  0.018275  0.000000      2.000000
 -0.015827  0.009138  0.000000      4.000000
  0.001759  0.021321  0.000000      4.000000
 -0.017585  0.012183  0.000000      4.000000
 -0.019344 -0.009138  0.000000      4.000000
  0.003517  0.024367  0.000000      4.000000
 -0.019344  0.015229  0.000000      4.000000
 -0.022861 -0.009138  0.000000      4.000000
  0.005276  0.027413  0.000000      4.000000
 -0.021102  0.018275  0.000000      4.000000
 -0.026378 -0.009138  0.000000      4.000000
  0.007034  0.030459  0.000000      4.000000
 -0.022861  0.021321  0.000000      4.000000
 -0.029895 -0.009138  0.000000      4.000000
  0.008793  0.033504  0.000000      4.000000
 -0.024619  0.024367  0.000000      4.000000
 -0.033412 -0.009138  0.000000      4.000000
  0.010551  0.036550  0.000000      4.000000
 -0.026378  0.027413  0.000000      4.000000
 -0.036929 -0.009138  0.000000      4.000000
  0.012310  0.039596  0.000000      4.000000
 -0.028136  0.030459  0.000000      4.000000
 -0.040446 -0.009138  0.000000      4.000000
  0.014068  0.042642  0.000000      4.000000
 -0.029895  0.033504  0.000000      4.000000
 -0.043963 -0.009138  0.000000      4.000000
  0.015827  0.045688  0.000000      4.000000
 -0.031653  0.036550  0.000000      4.000000
 -0.047480 -0.009138  0.000000      4.000000
  0.017585  0.048734  0.000000      4.000000
 -0.033412  0.039596  0.000000      4.000000
 -0.050997 -0.009138  0.000000      4.000000
  0.019344  0.051780  0.000000      4.000000
 -0.035171  0.042642  0.000000      4.000000
 -0.054514 -0.009138  0.000000      4.000000
  0.021102  0.054825  0.000000      4.000000
 -0.036929  0.045688  0.000000      4.000000
 -0.058031 -0.009138  0.000000      4.000000
  0.022861  0.057871  0.000000      4.000000
 -0.038688  0.048734  0.000000      4.000000
 -0.061548 -0.009138  0.000000      4.000000
  0.024619  0.060917  0.000000      4.000000
 -0.040446  0.051780  0.000000      4.000000
 -0.065065 -0.009138  0.000000      4.000000
  0.026378  0.063963  0.000000      4.000000
 -0.042205  0.054825  0.000000      4.000000
 -0.068582 -0.009138  0.000000      4.000000
  0.028136  0.067009  0.000000      4.000000
 -0.043963  0.057871  0.000000      4.000000
 -0.072100 -0.009138  0.000000      4.000000
  0.029895  0.070055  0.000000      4.000000
 -0.045722  0.060917  0.000000      4.000000
 -0.075617 -0.009138  0.000000      4.000000
  0.031653  0.073101  0.000000      4.000000
 -0.047480  0.063963  0.000000      4.000000
 -0.079134 -0.009138  0.000000      4.000000
  0.033412  0.076146  0.000000      4.000000
 -0.049239  0.067009  0.000000      4.000000
 -0.082651 -0.009138  0.000000      4.000000
  0.035171  0.079192  0.000000      4.000000
 -0.050997  0.070055  0.000000      4.000000
 -0.086168 -0.009138  0.000000      4.000000
  0.036929  0.082238  0.000000      4.000000
 -0.052756  0.073101  0.000000      4.000000
 -0.089685 -0.009138  0.000000      4.000000
  0.038688  0.085284  0.000000      4.000000
 -0.054514  0.076146  0.000000      4.000000
 -0.093202 -0.009138  0.000000      4.000000
  0.040446  0.088330  0.000000      4.000000
 -0.056273  0.079192  0.000000      4.000000
 -0.096719 -0.009138  0.000000      4.000000
  0.042205  0.091376  0.000000      4.000000
 -0.058031  0.082238  0.000000      4.000000
 -0.100236 -0.009138  0.000000      4.000000
  0.043963  0.094422  0.000000      4.000000
 -0.059790  0.085284  0.000000      4.000000
 -0.103753 -0.009138  0.000000      4.000000
  0.045722  0.097467  0.000000      4.000000
 -0.061548  0.088330  0.000000      4.000000
 -0.107270 -0.009138  0.000000      4.000000
  0.047480  0.100513  0.000000      4.000000
  0.050997 -0.106605  0.000000      4.000000
  0.003517  0.188843  0.000000      4.000000
  0.049239  0.103559  0.000000      4.000000
 -0.000000  0.188843  0.000000      2.000000
  0.000000  0.024367  0.000000      2.000000
 -0.021102  0.012183  0.000000      4.000000
  0.001759  0.027413  0.000000      4.000000
 -0.022861  0.015229  0.000000      4.000000
 -0.024619 -0.012183  0.000000      4.000000
  0.003517  0.030459  0.000000      4.000000
 -0.024619  0.018275  0.000000      4.000000
 -0.028136 -0.012183  0.000000      4.000000
  0.005276  0.033504  0.000000      4.000000
 -0.026378  0.021321  0.000000      4.000000
 -0.031653 -0.012183  0.000000      4.000000
  0.007034  0.036550  0.000000      4.000000
 -0.028136  0.024367  0.000000      4.000000
 -0.035171 -0.012183  0.000000      4.000000
  0.008793  0.039596  0.000000      4.000000
 -0.029895  0.027413  0.000000      4.000000
 -0.038688 -0.012183  0.000000      4.000000
  0.010551  0.042642  0.000000      4.000000
 -0.031653  0.030459  0.000000      4.000000
 -0.042205 -0.012183  0.000000      4.000000
  0.012310  0.045688  0.000000      4.000000
 -0.033412  0.033504  0.000000      4.000000
 -0.045722 -0.012183  0.000000      4.000000
  0.014068  0.048734  0.000000      4.000000
 -0.035171  0.036550  0.000000      4.000000
 -0.049239 -0.012183  0.000000      4.000000
  0.015827  0.051780  0.000000      4.000000
 -0.036929  0.039596  0.000000      4.000000
 -0.052756 -0.012183  0.000000      4.000000
  0.017585  0.054825  0.000000      4.000000
 -0.038688  0.042642  0.000000      4.000000
 -0.056273 -0.012183  0.000000      4.000000
  0.019344  0.057871  0.000000      4.000000
 -0.040446  0.045688  0.000000      4.000000
 -0.059790 -0.012183  0.000000      4.000000
  0.021102  0.060917  0.000000      4.000000
 -0.042205  0.048734  0.000000      4.000000
 -0.063307 -0.012183  0.000000      4.000000
  0.022861  0.063963  0.000000      4.000000
 -0.043963  0.051780  0.000000      4.000000
 -0.066824 -0.012183  0.000000      4.000000
  0.024619  0.067009  0.000000      4.000000
 -0.045722  0.054825  0.000000      4.000000
 -0.070341 -0.012183  0.000000      4.000000
  0.026378  0.070055  0.000000      4.000000
 -0.047480  0.057871  0.000000      4.000000
 -0.073858 -0.012183  0.000000      4.000000
  0.028136  0.073101  0.000000      4.000000
 -0.049239  0.060917  0.000000      4.000000
 -0.077375 -0.012183  0.000000      4.000000
  0.029895  0.076146  0.000000      4.000000
 -0.050997  0.063963  0.000000      4.000000
 -0.080892 -0.012183  0.000000      4.000000
  0.031653  0.079192  0.000000      4.000000
 -0.052756  0.067009  0.000000      4.000000
 -0.084409 -0.012183  0.000000      4.000000
  0.033412  0.082238  0.000000      4.000000
 -0.054514  0.070055  0.000000      4.000000
 -0.087926 -0.012183  0.000000      4.000000
  0.035171  0.085284  0.000000      4.000000
 -0.056273  0.073101  0.000000      4.000000
 -0.091443 -0.012183  0.000000      4.000000
  0.036929  0.088330  0.000000      4.000000
 -0.058031  0.076146  0.000000      4.000000
 -0.094960 -0.012183  0.000000      4.000000
  0.038688  0.091376  0.000000      4.000000
 -0.059790  0.079192  0.000000      4.000000
 -0.098477 -0.012183  0.000000      4.000000
  0.040446  0.094422  0.000000      4.000000
 -0.061548  0.082238  0.000000      4.000000
 -0.101994 -0.012183  0.000000      4.000000
  0.042205  0.097467  0.000000      4.000000
 -0.063307  0.085284  0.000000      4.000000
 -0.105512 -0.012183  0.000000      4.000000
  0.043963  0.100513  0.000000      4.000000
  0.049239 -0.109651  0.000000      4.000000
  0.005276  0.185797  0.000000      4.000000
  0.045722  0.103559  0.000000      4.000000
  0.047480 -0.106605  0.000000      4.000000
  0.001759  0.185797  0.000000      4.000000
 -0.000000  0.030459  0.000000      2.000000
 -0.026378  0.015229  0.000000      4.000000
  0.001759  0.033504  0.000000      4.000000
 -0.028136  0.018275  0.000000      4.000000
 -0.029895 -0.015229  0.000000      4.000000
  0.003517  0.036550  0.000000      4.000000
 -0.029895  0.021321  0.000000      4.000000
 -0.033412 -0.015229  0.000000      4.000000
  0.005276  0.039596  0.000000      4.000000
 -0.031653  0.024367  0.000000      4.000000
 -0.036929 -0.015229  0.000000      4.000000
  0.007034  0.042642  0.000000      4.000000
 -0.033412  0.027413  0.000000      4.000000
 -0.040446 -0.015229  0.000000      4.000000
  0.008793  0.045688  0.000000      4.000000
 -0.035171  0.030459  0.000000      4.000000
 -0.043963 -0.015229  0.000000      4.000000
  0.010551  0.048734  0.000000      4.000000
 -0.036929  0.033504  0.000000      4.000000
 -0.047480 -0.015229  0.000000      4.000000
  0.012310  0.051780  0.000000      4.000000
 -0.038688  0.036550  0.000000      4.000000
 -0.050997 -0.015229  0.000000      4.000000
  0.014068  0.054825  0.000000      4.000000
 -0.040446  0.039596  0.000000      4.000000
 -0.054514 -0.015229  0.000000      4.000000
  0.015827  0.057871  0.000000      4.000000
 -0.042205  0.042642  0.000000      4.000000
 -0.058031 -0.015229  0.000000      4.000000
  0.017585  0.060917  0.000000      4.000000
 -0.043963  0.045688  0.000000      4.000000
[...]
     45      11.4080      0.00000
     46      11.4998      0.00000
     47      11.5531      0.00000
     48      11.8173      0.00000

 k-point  1084 :      -0.3077   -0.3538    0.0000
  band No.  band energies     occupation 
      1     -16.7094      2.00000
      2     -16.5787      2.00000
      3     -14.6343      2.00000
      4     -11.2190      2.00000
      5     -11.0298      2.00000
      6      -9.6978      2.00000
      7      -9.5726      2.00000
      8      -6.8590      2.00000
      9      -6.6628      2.00000
     10      -6.1910      2.00000
     11      -6.1131      2.00000
     12      -4.7991      2.00000
     13       0.5446      0.00000
     14       0.9350      0.00000
     15       1.1910      0.00000
     16       1.3060      0.00000
     17       2.0710      0.00000
     18       2.2995      0.00000
     19       3.0298      0.00000
     20       3.1924      0.00000
     21       3.5960      0.00000
     22       4.2207      0.00000
     23       4.3568      0.00000
     24       4.6048      0.00000
     25       4.7973      0.00000
     26       4.9263      0.00000
     27       5.1665      0.00000
     28       5.1739      0.00000
     29       5.2083      0.00000
     30       5.2688      0.00000
     31       6.7513      0.00000
     32       6.8726      0.00000
     33       7.1087      0.00000
     34       7.1179      0.00000
     35       7.1805      0.00000
     36       7.4732      0.00000
     37       7.6221      0.00000
     38       7.7219      0.00000
     39       9.4305      0.00000
     40       9.6759      0.00000
     41      10.1286      0.00000
     42      10.3499      0.00000
     43      10.7854      0.00000
     44      10.9920      0.00000
     45      11.4080      0.00000
     46      11.4998      0.00000
     47      11.5531      0.00000
     48      11.8187      0.00000

 k-point  1085 :       0.3538    0.3385    0.0000
  band No.  band energies     occupation 
      1     -16.7094      2.00000
      2     -16.5787      2.00000
      3     -14.6343      2.00000
      4     -11.2190      2.00000
      5     -11.0298      2.00000
      6      -9.6978      2.00000
      7      -9.5726      2.00000
      8      -6.8590      2.00000
      9      -6.6628      2.00000
     10      -6.1910      2.00000
     11      -6.1130      2.00000
     12      -4.7991      2.00000
     13       0.5446      0.00000
     14       0.9350      0.00000
     15       1.1910      0.00000
     16       1.3060      0.00000
     17       2.0710      0.00000
     18       2.2995      0.00000
     19       3.0298      0.00000
     20       3.1924      0.00000
     21       3.5960      0.00000
     22       4.2207      0.00000
     23       4.3568      0.00000
     24       4.6048      0.00000
     25       4.7974      0.00000
     26       4.9261      0.00000
     27       5.1666      0.00000
     28       5.1739      0.00000
     29       5.2083      0.00000
     30       5.2688      0.00000
     31       6.7513      0.00000
     32       6.8725      0.00000
     33       7.1088      0.00000
     34       7.1179      0.00000
     35       7.1806      0.00000
     36       7.4731      0.00000
     37       7.6221      0.00000
     38       7.7219      0.00000
     39       9.4305      0.00000
     40       9.6759      0.00000
     41      10.1286      0.00000
     42      10.3499      0.00000
     43      10.7853      0.00000
     44      10.9921      0.00000
     45      11.4080      0.00000
     46      11.4998      0.00000
     47      11.5531      0.00000
     48      11.8173      0.00000

 k-point  1086 :       0.3231    0.3231    0.0000
  band No.  band energies     occupation 
      1     -16.6959      2.00000
      2     -16.5921      2.00000
      3     -14.6371      2.00000
      4     -11.1820      2.00000
      5     -11.0592      2.00000
      6      -9.7069      2.00000
      7      -9.5703      2.00000
      8      -6.8394      2.00000
      9      -6.6809      2.00000
     10      -6.1737      2.00000
     11      -6.1274      2.00000
     12      -4.8052      2.00000
     13       0.6153      0.00000
     14       0.8736      0.00000
     15       1.1975      0.00000
     16       1.2936      0.00000
     17       2.0658      0.00000
     18       2.2878      0.00000
     19       3.0397      0.00000
     20       3.2068      0.00000
     21       3.5671      0.00000
     22       4.2222      0.00000
     23       4.4311      0.00000
     24       4.5237      0.00000
     25       4.7979      0.00000
     26       5.0068      0.00000
     27       5.0804      0.00000
     28       5.1826      0.00000
     29       5.2309      0.00000
     30       5.2722      0.00000
     31       6.7503      0.00000
     32       6.9746      0.00000
     33       7.0026      0.00000
     34       7.1615      0.00000
     35       7.1661      0.00000
     36       7.5119      0.00000
     37       7.5960      0.00000
     38       7.6621      0.00000
     39       9.4752      0.00000
     40       9.6382      0.00000
     41      10.1239      0.00000
     42      10.3601      0.00000
     43      10.8145      0.00000
     44      10.9630      0.00000
     45      11.4170      0.00000
     46      11.5501      0.00000
     47      11.5788      0.00000
     48      11.7895      0.00000

 k-point  1087 :      -0.3231   -0.3538    0.0000
  band No.  band energies     occupation 
      1     -16.6959      2.00000
      2     -16.5921      2.00000
      3     -14.6371      2.00000
      4     -11.1820      2.00000
      5     -11.0592      2.00000
      6      -9.7069      2.00000
      7      -9.5703      2.00000
      8      -6.8394      2.00000
      9      -6.6809      2.00000
     10      -6.1737      2.00000
     11      -6.1273      2.00000
     12      -4.8052      2.00000
     13       0.6153      0.00000
     14       0.8735      0.00000
     15       1.1975      0.00000
     16       1.2936      0.00000
     17       2.0658      0.00000
     18       2.2878      0.00000
     19       3.0397      0.00000
     20       3.2068      0.00000
     21       3.5671      0.00000
     22       4.2222      0.00000
     23       4.4311      0.00000
     24       4.5237      0.00000
     25       4.7981      0.00000
     26       5.0063      0.00000
     27       5.0807      0.00000
     28       5.1826      0.00000
     29       5.2309      0.00000
     30       5.2722      0.00000
     31       6.7503      0.00000
     32       6.9743      0.00000
     33       7.0029      0.00000
     34       7.1616      0.00000
     35       7.1661      0.00000
     36       7.5119      0.00000
     37       7.5960      0.00000
     38       7.6622      0.00000
     39       9.4752      0.00000
     40       9.6382      0.00000
     41      10.1239      0.00000
     42      10.3601      0.00000
     43      10.8145      0.00000
     44      10.9631      0.00000
     45      11.4171      0.00000
     46      11.5501      0.00000
     47      11.5787      0.00000
     48      11.7896      0.00000

 k-point  1088 :       0.3385    0.3231    0.0000
  band No.  band energies     occupation 
      1     -16.6690      2.00000
      2     -16.6192      2.00000
      3     -14.6396      2.00000
      4     -11.1510      2.00000
      5     -11.0806      2.00000
      6      -9.7178      2.00000
      7      -9.5677      2.00000
      8      -6.7973      2.00000
      9      -6.7224      2.00000
     10      -6.1637      2.00000
     11      -6.1351      2.00000
     12      -4.8106      2.00000
     13       0.6791      0.00000
     14       0.8254      0.00000
     15       1.2205      0.00000
     16       1.2645      0.00000
     17       2.0609      0.00000
     18       2.2698      0.00000
     19       3.0967      0.00000
     20       3.1618      0.00000
     21       3.5505      0.00000
     22       4.3099      0.00000
     23       4.3614      0.00000
     24       4.5005      0.00000
     25       4.8881      0.00000
     26       4.9337      0.00000
     27       5.0585      0.00000
     28       5.2154      0.00000
     29       5.2520      0.00000
     30       5.2569      0.00000
     31       6.8530      0.00000
     32       6.8795      0.00000
     33       6.9898      0.00000
     34       7.1613      0.00000
     35       7.1852      0.00000
     36       7.5321      0.00000
     37       7.5701      0.00000
     38       7.6287      0.00000
     39       9.5134      0.00000
     40       9.6042      0.00000
     41      10.1223      0.00000
     42      10.3771      0.00000
     43      10.8430      0.00000
     44      10.9232      0.00000
     45      11.4736      0.00000
     46      11.5343      0.00000
     47      11.5686      0.00000
     48      11.7800      0.00000

 k-point  1089 :       0.3385    0.3385    0.0000
  band No.  band energies     occupation 
      1     -16.6690      2.00000
      2     -16.6192      2.00000
      3     -14.6396      2.00000
      4     -11.1510      2.00000
      5     -11.0806      2.00000
      6      -9.7178      2.00000
      7      -9.5677      2.00000
      8      -6.7973      2.00000
      9      -6.7224      2.00000
     10      -6.1637      2.00000
     11      -6.1351      2.00000
     12      -4.8106      2.00000
     13       0.6792      0.00000
     14       0.8254      0.00000
     15       1.2205      0.00000
     16       1.2645      0.00000
     17       2.0609      0.00000
     18       2.2698      0.00000
     19       3.0967      0.00000
     20       3.1618      0.00000
     21       3.5505      0.00000
     22       4.3099      0.00000
     23       4.3614      0.00000
     24       4.5005      0.00000
     25       4.8886      0.00000
     26       4.9330      0.00000
     27       5.0587      0.00000
     28       5.2154      0.00000
     29       5.2520      0.00000
     30       5.2569      0.00000
     31       6.8533      0.00000
     32       6.8792      0.00000
     33       6.9899      0.00000
     34       7.1613      0.00000
     35       7.1852      0.00000
     36       7.5320      0.00000
     37       7.5701      0.00000
     38       7.6287      0.00000
     39       9.5134      0.00000
     40       9.6043      0.00000
     41      10.1223      0.00000
     42      10.3771      0.00000
     43      10.8429      0.00000
     44      10.9232      0.00000
     45      11.4737      0.00000
     46      11.5342      0.00000
     47      11.5686      0.00000
     48      11.7800      0.00000


--------------------------------------------------------------------------------------------------------


 soft charge-density along one line, spin component           1
         0         1         2         3         4         5         6         7         8         9
 total charge-density along one line
 
 pseudopotential strength for first ion, spin component:           1
  6.792  10.368  -0.004  -0.000  -0.007  -0.007  -0.000  -0.012
 10.368  15.822  -0.006  -0.000  -0.011  -0.010  -0.000  -0.017
 -0.004  -0.006  -2.347   0.000   0.002  -4.036   0.000   0.005
 -0.000  -0.000   0.000  -2.341  -0.000   0.000  -4.023  -0.000
 -0.007  -0.011   0.002  -0.000  -2.344   0.005  -0.000  -4.030
 -0.007  -0.010  -4.036   0.000   0.005  -6.744   0.000   0.010
 -0.000  -0.000   0.000  -4.023  -0.000   0.000  -6.716  -0.000
 -0.012  -0.017   0.005  -0.000  -4.030   0.010  -0.000  -6.732
 total augmentation occupancy for first ion, spin component:           1
  2.000   0.000   0.000   0.000   0.000   0.000   0.000   0.000
  0.000   0.000   0.000   0.000   0.000   0.000   0.000   0.000
  0.000   0.000   0.333   0.000   0.000   0.000   0.000   0.000
  0.000   0.000   0.000   0.333   0.000   0.000   0.000   0.000
  0.000   0.000   0.000   0.000   0.333   0.000   0.000   0.000
  0.000   0.000   0.000   0.000   0.000   0.000   0.000   0.000
  0.000   0.000   0.000   0.000   0.000   0.000   0.000   0.000
  0.000   0.000   0.000   0.000   0.000   0.000   0.000   0.000


------------------------ aborting loop because EDIFF is reached ----------------------------------------





 total charge

# of ion       s       p       d       tot
------------------------------------------
    1        0.692   1.400   0.000   2.092
    2        0.692   1.400   0.000   2.092
    3        0.692   1.400   0.000   2.092
    4        0.692   1.400   0.000   2.092
    5        0.692   1.400   0.000   2.092
    6        0.692   1.400   0.000   2.092
    7        0.673   1.391   0.000   2.063
    8        0.673   1.391   0.000   2.063
--------------------------------------------------
tot          5.496  11.182   0.000  16.678
 
    CHARGE:  cpu time      1.8043: real time      1.8180
    FORLOC:  cpu time      0.0009: real time      0.0009
    FORNL :  cpu time      3.8234: real time      3.8370
    STRESS:  cpu time     27.1746: real time     27.2587
    FORCOR:  cpu time      0.0125: real time      0.0126
    FORHAR:  cpu time      0.0035: real time      0.0035
    OFIELD:  cpu time      0.0000: real time      0.0000

  FORCE on cell =-STRESS in cart. coord.  units (eV):
  Direction    XX          YY          ZZ          XY          YZ          ZX
  --------------------------------------------------------------------------------------
  Alpha Z    13.28498    13.28498    13.28498
  Ewald    2352.61982  2352.61965 -2948.37789    -0.00000     0.00000    -0.00000
  Hartree  2203.92120  2203.92111 -2190.04249     0.00000    -0.00000    -0.00000
  E(xc)     -76.71365   -76.71365   -79.23343    -0.00000    -0.00000    -0.00000
  Local   -4727.91404 -4727.91380  4910.63513     0.00000    -0.00000     0.00000
  n-local    -9.98655    -9.98655   -13.91589    -0.06355     0.00001    -0.00000
  augment     0.24375     0.24375     0.30022     0.00000    -0.00000    -0.00000
  Kinetic   245.26993   245.26988   307.33747     0.03912    -0.00005    -0.00000
  Fock        0.00000     0.00000     0.00000     0.00000     0.00000     0.00000
  -------------------------------------------------------------------------------------
  Total       0.72544     0.72537    -0.01192     0.00000     0.00000    -0.00000
  in kB       3.50698     3.50667    -0.05761     0.00000     0.00000    -0.00000
  external pressure =        2.32 kB  Pullay stress =        0.00 kB


 VOLUME and BASIS-vectors are now :
 -----------------------------------------------------------------------------
  energy-cutoff  :      450.00
  volume of cell :      331.42
      direct lattice vectors                 reciprocal lattice vectors
     4.374294000  2.525500000  0.000000000     0.114304160  0.197980598  0.000000000
    -4.374294000  2.525500000  0.000000000    -0.114304160  0.197980598  0.000000000
     0.000000000  0.000000000 15.000000000     0.000000000  0.000000000  0.066666667

  length of vectors
     5.050999728  5.050999728 15.000000000     0.228608307  0.228608307  0.066666667


 FORCES acting on ions
    electron-ion (+dipol)            ewald-force                    non-local-force                 convergence-correction
 -----------------------------------------------------------------------------------------------
   -.256E+02 -.148E+02 0.177E-06   0.283E+02 0.163E+02 0.764E-07   -.278E+01 -.161E+01 -.156E-08   0.994E-03 0.574E-03 0.109E-08
   0.256E+02 0.148E+02 0.140E-06   -.283E+02 -.163E+02 0.145E-06   0.278E+01 0.161E+01 0.156E-08   -.994E-03 -.574E-03 0.616E-09
   -.256E+02 0.148E+02 0.274E-05   0.283E+02 -.163E+02 -.145E-06   -.278E+01 0.161E+01 -.156E-08   0.994E-03 -.574E-03 0.141E-09
   0.256E+02 -.148E+02 0.263E-05   -.283E+02 0.163E+02 -.765E-07   0.278E+01 -.161E+01 0.156E-08   -.994E-03 0.574E-03 -.327E-09
   -.157E-04 0.295E+02 0.135E-05   0.142E-13 -.327E+02 -.627E-11   0.106E-15 0.321E+01 0.529E-21   0.358E-07 -.115E-02 -.194E-08
   -.157E-04 -.295E+02 0.129E-05   0.142E-13 0.327E+02 -.627E-11   0.961E-16 -.321E+01 -.847E-21   0.358E-07 0.115E-02 -.193E-08
   -.267E-03 0.864E-04 0.158E+00   0.211E-03 0.309E-03 -.163E+00   0.330E-04 0.830E-19 0.502E-02   0.604E-06 -.662E-08 0.515E-04
   0.132E-03 0.864E-04 -.158E+00   -.211E-03 0.309E-03 0.163E+00   -.330E-04 -.289E-18 -.502E-02   -.503E-06 -.663E-08 -.515E-04
 -----------------------------------------------------------------------------------------------
   -.672E-03 0.674E-03 0.106E-04   -.373E-14 0.320E-15 0.666E-15   0.109E-14 -.206E-18 0.000E+00   0.833E-07 -.243E-07 -.318E-07
 
 
 POSITION                                       TOTAL-FORCE (eV/Angst)
 -----------------------------------------------------------------------------------
      2.92610      1.68939      1.50000        -0.025988     -0.014999      0.000000
      1.44819      0.83611      1.50000         0.025988      0.014999     -0.000000
     -1.44819      0.83611      1.50000        -0.025988      0.014999      0.000000
     -2.92610      1.68939      1.50000         0.025988     -0.014999     -0.000000
      0.00000      1.67222      1.50000        -0.000000      0.029988      0.000000
     -0.00000      3.37877      1.50000        -0.000000     -0.029988     -0.000000
      1.45810      2.52550      1.49934         0.000045      0.000000      0.000021
     -1.45810      2.52550      1.50066        -0.000045      0.000000     -0.000021
 -----------------------------------------------------------------------------------
    total drift:                               -0.000672      0.000674      0.000011


--------------------------------------------------------------------------------------------------------



  FREE ENERGIE OF THE ION-ELECTRON SYSTEM (eV)
  ---------------------------------------------------
  free  energy   TOTEN  =       -50.46836380 eV

  energy  without entropy=      -50.46333449  energy(sigma->0) =      -50.46584915
 


--------------------------------------------------------------------------------------------------------


    POTLOK:  cpu time      0.0182: real time      0.0183


--------------------------------------------------------------------------------------------------------


 stress matrix after NEB project (eV)
      0.72544      0.00000     -0.00000
      0.00000      0.72537      0.00000
     -0.00000      0.00000     -0.01192
  FORCES: max atom, RMS     0.030006    0.025981
  FORCE total and by dimension    0.073485    0.029988
  Stress total and by dimension    1.025946    0.725436
     LOOP+:  cpu time    382.4600: real time    384.9708
    4ORBIT:  cpu time      0.0000: real time      0.0000



 total charge

# of ion       s       p       d       tot
------------------------------------------
    1        0.692   1.400   0.000   2.092
    2        0.692   1.400   0.000   2.092
    3        0.692   1.400   0.000   2.092
    4        0.692   1.400   0.000   2.092
    5        0.692   1.400   0.000   2.092
    6        0.692   1.400   0.000   2.092
    7        0.673   1.391   0.000   2.063
    8        0.673   1.391   0.000   2.063
--------------------------------------------------
tot          5.496  11.182   0.000  16.678
 

 total amount of memory used by VASP MPI-rank0   672750. kBytes
=======================================================================

   base      :      30000. kBytes
   nonl-proj :     506084. kBytes
   fftplans  :       1560. kBytes
   grid      :       7121. kBytes
   one-center:         24. kBytes
   wavefun   :     127961. kBytes
 
  
  
 General timing and accounting informations for this job:
 ========================================================
  
                  Total CPU time used (sec):      414.957
                            User time (sec):      408.849
                          System time (sec):        6.108
                         Elapsed time (sec):      422.570
  
                   Maximum memory used (kb):     1449704.
                   Average memory used (kb):          N/A
  
                          Minor page faults:      1977283
                          Major page faults:         1760
                 Voluntary context switches:         8053
