Lattice                                 
           1
     4.194161    2.421500    0.000000
    -4.194161    2.421500    0.000000
     0.000000    0.000000   15.000000
   B    C 
     4    11
Direct configuration=     1
   0.00415361  0.00267210  0.12034134
   0.35695335  0.00285503  0.09748893
   0.00423858  0.35550699  0.09749256
   0.65142295  0.65006557  0.09747688
   0.32808646  0.32671938  0.10030508
   0.68027775  0.00278085  0.10027562
   0.00416530  0.67883808  0.10026559
   0.16666600  0.33333300  0.33720000
   0.33333300  0.16666600  0.33720000
   0.16666600  0.83333300  0.33720000
   0.33333300  0.66666600  0.33720000
   0.66666600  0.33333300  0.33720000
   0.83333300  0.16666600  0.33720000
   0.66666600  0.83333300  0.33720000
   0.83333300  0.66666600  0.33720000
Direct configuration=     2
   0.00418489  0.00275104  0.11899678
   0.35591041  0.00280294  0.09784436
   0.00419490  0.35447711  0.09784724
   0.65243705  0.65104803  0.09783989
   0.32477237  0.32336931  0.10032093
   0.68361217  0.00280195  0.10030197
   0.00420277  0.68219889  0.10029561
   0.16659358  0.33342366  0.33726092
   0.33342411  0.16659631  0.33726196
   0.16682126  0.83339229  0.33726368
   0.33333490  0.66667220  0.33711369
   0.66667134  0.33333136  0.33711367
   0.83338963  0.16681886  0.33726356
   0.66657335  0.83317594  0.33726133
   0.83317127  0.66657410  0.33726040
Direct configuration=     3
   0.00416995  0.00271335  0.11963877
   0.35640839  0.00282781  0.09767465
   0.00421575  0.35496885  0.09767789
   0.65195284  0.65057893  0.09766656
   0.32635476  0.32496888  0.10031336
   0.68202007  0.00279188  0.10028939
   0.00418488  0.68059419  0.10028127
   0.16662816  0.33338037  0.33723183
   0.33338061  0.16662959  0.33723238
   0.16674713  0.83336398  0.33723327
   0.33333399  0.66666924  0.33715490
   0.66666879  0.33333214  0.33715489
   0.83336259  0.16674587  0.33723321
   0.66661759  0.83325093  0.33723205
   0.83324849  0.66661798  0.33723156
Direct configuration=     4
   0.00418675  0.00277399  0.11835857
   0.35695339  0.00278251  0.09803180
   0.00418210  0.35553557  0.09803423
   0.65141045  0.65000637  0.09803178
   0.32650249  0.32508776  0.10029272
   0.68188643  0.00279687  0.10027984
   0.00420493  0.68047425  0.10027499
   0.16670800  0.33328567  0.33729165
   0.33328419  0.16670874  0.33729309
   0.16657138  0.83328789  0.33729538
   0.33332894  0.66666050  0.33709193
   0.66665954  0.33333147  0.33709191
   0.83328773  0.16657385  0.33729517
   0.66670716  0.83342028  0.33729208
   0.83342052  0.66670828  0.33729084
Direct configuration=     5
   0.00423713  0.00295594  0.11451797
   0.35858840  0.00264662  0.09910324
   0.00408115  0.35723571  0.09910326
   0.64978328  0.64828870  0.09912743
   0.32694567  0.32544442  0.10023080
   0.68148551  0.00281186  0.10025120
   0.00426506  0.68011442  0.10025613
   0.16694751  0.33300155  0.33747111
   0.33299495  0.16694619  0.33747524
   0.16604414  0.83305960  0.33748172
   0.33331379  0.66663427  0.33690301
   0.66663180  0.33332943  0.33690298
   0.83306314  0.16605778  0.33748106
   0.66697587  0.83392834  0.33747217
   0.83393661  0.66697917  0.33746867
Direct configuration=     6
   0.00423790  0.00296093  0.11389722
   0.35871646  0.00264063  0.09923090
   0.00408151  0.35737154  0.09923073
   0.64966344  0.64816138  0.09925740
   0.32708599  0.32558231  0.10026727
   0.68134941  0.00280488  0.10029168
   0.00426140  0.67998270  0.10029764
   0.16677394  0.33316184  0.33748836
   0.33315610  0.16677479  0.33749262
   0.16637666  0.83321888  0.33749921
   0.33331520  0.66664601  0.33690972
   0.66664234  0.33332545  0.33690969
   0.83321803  0.16638542  0.33749848
   0.66681479  0.83359872  0.33748932
   0.83360082  0.66681852  0.33748577
Direct configuration=     7
   0.00423943  0.00297087  0.11266281
   0.35897111  0.00262871  0.09948475
   0.00408222  0.35764164  0.09948422
   0.64942514  0.64790821  0.09951585
   0.32736502  0.32585651  0.10033979
   0.68107875  0.00279098  0.10037218
   0.00425413  0.67972076  0.10038019
   0.16642879  0.33348060  0.33752266
   0.33347656  0.16643396  0.33752718
   0.16703791  0.83353562  0.33753398
   0.33331800  0.66666935  0.33692305
   0.66666331  0.33331753  0.33692303
   0.83352605  0.16703695  0.33753312
   0.66649448  0.83294325  0.33752344
   0.83293310  0.66649905  0.33751976
Direct configuration=     8
   0.00423500  0.00295080  0.11197305
   0.35891711  0.00264404  0.09957117
   0.00410289  0.35758888  0.09957078
   0.64949097  0.64797711  0.09960247
   0.32748817  0.32599132  0.10043735
   0.68095510  0.00277709  0.10047198
   0.00423804  0.67959618  0.10048035
   0.16645498  0.33351110  0.33752660
   0.33350756  0.16646244  0.33753086
   0.16703132  0.83350188  0.33753710
   0.33332082  0.66666983  0.33697865
   0.66666320  0.33331862  0.33697865
   0.83349186  0.16703024  0.33753619
   0.66646237  0.83294667  0.33752708
   0.83293462  0.66646781  0.33752372
Direct configuration=     9
   0.00422168  0.00289062  0.10990377
   0.35875512  0.00269002  0.09983044
   0.00416492  0.35743062  0.09983044
   0.64968846  0.64818382  0.09986235
   0.32785760  0.32639576  0.10073000
   0.68058414  0.00273539  0.10077139
   0.00418977  0.67922245  0.10078083
   0.16653354  0.33360258  0.33753842
   0.33360053  0.16654787  0.33754190
   0.16701156  0.83340066  0.33754648
   0.33332928  0.66667127  0.33714546
   0.66666288  0.33332186  0.33714551
   0.83338929  0.16701009  0.33754541
   0.66636605  0.83295692  0.33753800
   0.83293917  0.66637408  0.33753560
Direct configuration=    10
   0.00419505  0.00277024  0.10576521
   0.35843115  0.00278198  0.10034896
   0.00428896  0.35711409  0.10034977
   0.65008345  0.64859723  0.10038211
   0.32859646  0.32720464  0.10131531
   0.67984222  0.00265200  0.10137020
   0.00409323  0.67847499  0.10138179
   0.16669068  0.33378555  0.33756207
   0.33378648  0.16671872  0.33756397
   0.16697204  0.83319821  0.33756523
   0.33334619  0.66667415  0.33747909
   0.66666224  0.33332835  0.33747922
   0.83318415  0.16696981  0.33756386
   0.66617342  0.83297742  0.33755984
   0.83294829  0.66618661  0.33755937
Direct configuration=    11
   0.00423344  0.00280498  0.10408227
   0.35871671  0.00283366  0.10064351
   0.00431470  0.35734129  0.10064510
   0.64976128  0.64831401  0.10067233
   0.32828960  0.32691541  0.10146613
   0.68011777  0.00270427  0.10151954
   0.00412864  0.67870296  0.10153041
   0.16662257  0.33292993  0.33757972
   0.33291056  0.16662099  0.33758098
   0.16632855  0.83335924  0.33758118
   0.33326778  0.66663061  0.33760510
   0.66662487  0.33329822  0.33760522
   0.83335089  0.16634508  0.33757981
   0.66701333  0.83361468  0.33757725
   0.83361332  0.66701867  0.33757744
Direct configuration=    12
   0.00422105  0.00279377  0.10462534
   0.35862456  0.00281698  0.10054846
   0.00430639  0.35726797  0.10054980
   0.64986524  0.64840540  0.10057868
   0.32838862  0.32700875  0.10141746
   0.68002885  0.00268740  0.10147135
   0.00411721  0.67862939  0.10148245
   0.16664455  0.33320603  0.33757402
   0.33319321  0.16665253  0.33757549
   0.16653619  0.83330728  0.33757603
   0.33329308  0.66664466  0.33756444
   0.66663693  0.33330794  0.33756456
   0.83329708  0.16654667  0.33757466
   0.66674230  0.83340904  0.33757164
   0.83339872  0.66675017  0.33757160
Direct configuration=    13
   0.00424380  0.00283336  0.10428740
   0.35903360  0.00282303  0.10069691
   0.00427948  0.35763254  0.10069860
   0.64941528  0.64798117  0.10072243
   0.32797540  0.32658190  0.10135453
   0.68043525  0.00275643  0.10140182
   0.00417897  0.67900793  0.10141143
   0.16655809  0.33323514  0.33759026
   0.33322371  0.16656504  0.33759172
   0.16663991  0.83339782  0.33759256
   0.33329489  0.66663629  0.33756517
   0.66662326  0.33330874  0.33756524
   0.83338809  0.16665367  0.33759130
   0.66670342  0.83330552  0.33758838
   0.83330085  0.66671541  0.33758825
Direct configuration=    14
   0.00426242  0.00286578  0.10401070
   0.35936852  0.00282799  0.10081846
   0.00425745  0.35793103  0.10082043
   0.64904686  0.64763383  0.10084013
   0.32763706  0.32623241  0.10130300
   0.68076800  0.00281295  0.10134489
   0.00422954  0.67931787  0.10135328
   0.16648730  0.33325898  0.33760355
   0.33324868  0.16649341  0.33760501
   0.16672482  0.83347195  0.33760609
   0.33329638  0.66662943  0.33756576
   0.66661206  0.33330940  0.33756580
   0.83346261  0.16674127  0.33760492
   0.66667158  0.83322076  0.33760209
   0.83322073  0.66668695  0.33760187
Direct configuration=    15
   0.00422231  0.00280459  0.10382985
   0.35958745  0.00280854  0.10093166
   0.00422443  0.35815493  0.10093368
   0.64884308  0.64743411  0.10094852
   0.32775673  0.32633203  0.10123171
   0.68069454  0.00282886  0.10126506
   0.00425010  0.67926494  0.10127162
   0.16673758  0.33337966  0.33762269
   0.33336674  0.16675073  0.33762429
   0.16660581  0.83318789  0.33762601
   0.33329567  0.66665885  0.33754629
   0.66665236  0.33330489  0.33754629
   0.83317209  0.16660985  0.33762493
   0.66657079  0.83333633  0.33762194
   0.83331433  0.66657780  0.33762145
Direct configuration=    16
   0.00423291  0.00282077  0.10387767
   0.35952957  0.00281368  0.10090173
   0.00423316  0.35809573  0.10090374
   0.64889696  0.64748692  0.10091986
   0.32772509  0.32630569  0.10125056
   0.68071396  0.00282465  0.10128616
   0.00424467  0.67927893  0.10129321
   0.16667141  0.33334776  0.33761763
   0.33333552  0.16668269  0.33761920
   0.16663728  0.83326300  0.33762074
   0.33329586  0.66665107  0.33755144
   0.66664170  0.33330608  0.33755145
   0.83324890  0.16664460  0.33761964
   0.66659744  0.83330577  0.33761669
   0.83328958  0.66660666  0.33761627
Direct configuration=    17
   0.00420263  0.00277226  0.10379161
   0.35949455  0.00280083  0.10095453
   0.00421976  0.35807586  0.10095652
   0.64895498  0.64753933  0.10096930
   0.32792053  0.32649185  0.10121463
   0.68055024  0.00281565  0.10124329
   0.00424002  0.67913494  0.10124889
   0.16660787  0.33330874  0.33763185
   0.33329892  0.16662253  0.33763356
   0.16663861  0.83332406  0.33763561
   0.33330397  0.66664335  0.33753476
   0.66663151  0.33331241  0.33753476
   0.83331363  0.16665031  0.33763457
   0.66663129  0.83329826  0.33763139
   0.83328548  0.66664363  0.33763073
Direct configuration=    18
   0.00419543  0.00276071  0.10377114
   0.35948622  0.00279777  0.10096710
   0.00421657  0.35807113  0.10096908
   0.64896879  0.64755180  0.10098106
   0.32796704  0.32653615  0.10120608
   0.68051127  0.00281351  0.10123309
   0.00423891  0.67910068  0.10123834
   0.16659274  0.33329945  0.33763524
   0.33329021  0.16660822  0.33763697
   0.16663893  0.83333859  0.33763914
   0.33330591  0.66664152  0.33753079
   0.66662909  0.33331391  0.33753078
   0.83332903  0.16665167  0.33763812
   0.66663935  0.83329647  0.33763489
   0.83328451  0.66665243  0.33763418
Direct configuration=    19
   0.00420702  0.00277795  0.10369327
   0.35935748  0.00280342  0.10098986
   0.00422172  0.35793842  0.10099183
   0.64909682  0.64767701  0.10100108
   0.32794963  0.32652123  0.10119673
   0.68052225  0.00281309  0.10121737
   0.00423627  0.67910564  0.10122133
   0.16660124  0.33330038  0.33764669
   0.33328641  0.16660914  0.33764851
   0.16666869  0.83334248  0.33765099
   0.33328832  0.66664352  0.33752296
   0.66663206  0.33330239  0.33752296
   0.83332785  0.16667861  0.33765005
   0.66663664  0.83327355  0.33764662
   0.83326159  0.66664717  0.33764574
Direct configuration=    20
   0.00421326  0.00278722  0.10365142
   0.35928828  0.00280646  0.10100210
   0.00422449  0.35786707  0.10100407
   0.64916564  0.64774432  0.10101184
   0.32794028  0.32651320  0.10119170
   0.68052814  0.00281286  0.10120891
   0.00423485  0.67910830  0.10121218
   0.16660581  0.33330089  0.33765285
   0.33328436  0.16660963  0.33765472
   0.16668469  0.83334458  0.33765736
   0.33327887  0.66664460  0.33751875
   0.66663366  0.33329619  0.33751875
   0.83332721  0.16669309  0.33765646
   0.66663518  0.83326123  0.33765294
   0.83324927  0.66664435  0.33765195
Direct configuration=    21
   0.00423070  0.00281347  0.10355069
   0.35924976  0.00281405  0.10101020
   0.00423342  0.35782326  0.10101218
   0.64920179  0.64777824  0.10101738
   0.32791434  0.32649182  0.10119930
   0.68054139  0.00281265  0.10120967
   0.00423282  0.67911242  0.10121157
   0.16661247  0.33332100  0.33766392
   0.33331427  0.16663182  0.33766581
   0.16661414  0.83331039  0.33766855
   0.33331163  0.66663496  0.33752094
   0.66661850  0.33331695  0.33752094
   0.83330285  0.16663015  0.33766773
   0.66661123  0.83331474  0.33766410
   0.83330470  0.66662808  0.33766301
Direct configuration=    22
   0.00423143  0.00281456  0.10354650
   0.35924815  0.00281437  0.10101054
   0.00423379  0.35782143  0.10101251
   0.64920330  0.64777965  0.10101761
   0.32791326  0.32649093  0.10119961
   0.68054194  0.00281265  0.10120970
   0.00423274  0.67911259  0.10121155
   0.16661274  0.33332183  0.33766438
   0.33331552  0.16663274  0.33766628
   0.16661120  0.83330897  0.33766902
   0.33331300  0.66663456  0.33752103
   0.66661787  0.33331781  0.33752103
   0.83330184  0.16662753  0.33766820
   0.66661023  0.83331697  0.33766457
   0.83330700  0.66662740  0.33766347
Direct configuration=    23
   0.00423701  0.00282259  0.10348358
   0.35925759  0.00281659  0.10101258
   0.00423755  0.35783022  0.10101457
   0.64919481  0.64776973  0.10101837
   0.32791217  0.32649147  0.10120666
   0.68053997  0.00281130  0.10121300
   0.00423142  0.67910837  0.10121410
   0.16661221  0.33331878  0.33767047
   0.33331192  0.16663328  0.33767237
   0.16660829  0.83330520  0.33767510
   0.33331293  0.66663670  0.33752533
   0.66662124  0.33331777  0.33752533
   0.83329761  0.16662401  0.33767433
   0.66661394  0.83331753  0.33767068
   0.83330535  0.66663045  0.33766954
Direct configuration=    24
   0.00425376  0.00284670  0.10329481
   0.35928590  0.00282327  0.10101871
   0.00424882  0.35785657  0.10102072
   0.64916935  0.64773997  0.10102063
   0.32790893  0.32649310  0.10122782
   0.68053406  0.00280726  0.10122289
   0.00422745  0.67909569  0.10122174
   0.16661059  0.33330963  0.33768875
   0.33330113  0.16663487  0.33769064
   0.16659954  0.83329390  0.33769335
   0.33331274  0.66664312  0.33753823
   0.66663136  0.33331764  0.33753823
   0.83328491  0.16661342  0.33769272
   0.66662508  0.83331924  0.33768901
   0.83330041  0.66663961  0.33768775
Direct configuration=    25
   0.00428725  0.00289492  0.10291727
   0.35934251  0.00283664  0.10103098
   0.00427136  0.35790929  0.10103303
   0.64911843  0.64768046  0.10102517
   0.32790243  0.32649634  0.10127013
   0.68052224  0.00279919  0.10124267
   0.00421953  0.67907033  0.10123704
   0.16660735  0.33329132  0.33772530
   0.33327954  0.16663806  0.33772719
   0.16658204  0.83327130  0.33772984
   0.33331234  0.66665596  0.33756402
   0.66665159  0.33331738  0.33756403
   0.83325950  0.16659226  0.33772949
   0.66664737  0.83332264  0.33772568
   0.83329051  0.66665791  0.33772416
Direct configuration=    26
   0.00435424  0.00299134  0.10216221
   0.35945574  0.00286336  0.10105551
   0.00431644  0.35801471  0.10105765
   0.64901659  0.64756145  0.10103423
   0.32788943  0.32650283  0.10135475
   0.68049861  0.00278305  0.10128222
   0.00420367  0.67901962  0.10126762
   0.16660088  0.33325470  0.33779839
   0.33323637  0.16664444  0.33780029
   0.16654704  0.83322609  0.33780283
   0.33331156  0.66668164  0.33761561
   0.66669206  0.33331687  0.33761562
   0.83320870  0.16654994  0.33780304
   0.66669193  0.83332944  0.33779902
   0.83327073  0.66669453  0.33779700
Direct configuration=    27
   0.00435131  0.00298599  0.10209052
   0.35946171  0.00286165  0.10106105
   0.00431637  0.35802352  0.10106319
   0.64901525  0.64755861  0.10103875
   0.32789367  0.32650599  0.10135831
   0.68050041  0.00278094  0.10128243
   0.00420303  0.67902452  0.10126716
   0.16659598  0.33325952  0.33780500
   0.33324121  0.16663670  0.33780688
   0.16655854  0.83323915  0.33780940
   0.33330720  0.66667434  0.33762222
   0.66668085  0.33331396  0.33762223
   0.83322159  0.16656361  0.33780965
   0.66668054  0.83332009  0.33780562
   0.83326635  0.66668542  0.33780358
Direct configuration=    28
   0.00434251  0.00296991  0.10187548
   0.35947962  0.00285651  0.10107766
   0.00431616  0.35804996  0.10107982
   0.64901123  0.64755010  0.10105230
   0.32790638  0.32651546  0.10136897
   0.68050580  0.00277462  0.10128305
   0.00420108  0.67903924  0.10126579
   0.16658126  0.33327398  0.33782484
   0.33325570  0.16661348  0.33782667
   0.16659304  0.83327834  0.33782911
   0.33329411  0.66665243  0.33764205
   0.66664724  0.33330522  0.33764206
   0.83326027  0.16660462  0.33782948
   0.66664636  0.83329203  0.33782542
   0.83325324  0.66665809  0.33782331
Direct configuration=    29
   0.00432491  0.00293776  0.10144538
   0.35951545  0.00284625  0.10111090
   0.00431573  0.35810285  0.10111309
   0.64900319  0.64753309  0.10107939
   0.32793181  0.32653441  0.10139029
   0.68051659  0.00276197  0.10128430
   0.00419720  0.67906867  0.10126304
   0.16655183  0.33330290  0.33786450
   0.33328468  0.16656704  0.33786625
   0.16666205  0.83335672  0.33786853
   0.33326793  0.66660861  0.33768170
   0.66658001  0.33328775  0.33768172
   0.83333763  0.16668664  0.33786913
   0.66657800  0.83323593  0.33786502
   0.83322701  0.66660343  0.33786278
Direct configuration=    30
   0.00430706  0.00290924  0.10134574
   0.35950376  0.00283750  0.10112979
   0.00430666  0.35809764  0.10113201
   0.64902450  0.64755496  0.10109849
   0.32794107  0.32653621  0.10137933
   0.68052980  0.00276393  0.10127215
   0.00420270  0.67909287  0.10125067
   0.16656321  0.33330091  0.33787291
   0.33328124  0.16657616  0.33787460
   0.16665778  0.83334875  0.33787677
   0.33326093  0.66660678  0.33769594
   0.66657718  0.33328311  0.33769595
   0.83332809  0.16668233  0.33787736
   0.66657667  0.83324151  0.33787325
   0.83323334  0.66660212  0.33787105
Direct configuration=    31
   0.00425351  0.00282366  0.10104681
   0.35946870  0.00281127  0.10118649
   0.00427945  0.35808200  0.10118876
   0.64908844  0.64762057  0.10115577
   0.32796888  0.32654163  0.10134645
   0.68056941  0.00276981  0.10123571
   0.00421918  0.67916546  0.10121358
   0.16659737  0.33329493  0.33789814
   0.33327091  0.16660349  0.33789965
   0.16664499  0.83332485  0.33790150
   0.33323993  0.66660130  0.33773864
   0.66656871  0.33326921  0.33773865
   0.83329947  0.16666941  0.33790204
   0.66657270  0.83325825  0.33789793
   0.83325235  0.66659818  0.33789589
Direct configuration=    32
   0.00414642  0.00265252  0.10044895
   0.35939859  0.00275879  0.10129988
   0.00422503  0.35805073  0.10130226
   0.64921631  0.64775178  0.10127033
   0.32802449  0.32655246  0.10128069
   0.68064863  0.00278156  0.10116283
   0.00425215  0.67931065  0.10113940
   0.16666570  0.33328297  0.33794861
   0.33325025  0.16665817  0.33794975
   0.16661941  0.83327705  0.33795094
   0.33319793  0.66659033  0.33782406
   0.66655177  0.33324139  0.33782405
   0.83324223  0.16664356  0.33795141
   0.66656475  0.83329174  0.33794728
   0.83329035  0.66659029  0.33794555
Direct configuration=    33
   0.00416423  0.00267975  0.10024935
   0.35939218  0.00276727  0.10134141
   0.00422395  0.35802521  0.10134382
   0.64921116  0.64775641  0.10131461
   0.32802502  0.32654939  0.10124837
   0.68064148  0.00280964  0.10113399
   0.00427620  0.67928638  0.10111135
   0.16660790  0.33327590  0.33796572
   0.33324745  0.16661956  0.33796678
   0.16660643  0.83328767  0.33796770
   0.33322873  0.66660196  0.33785426
   0.66657035  0.33326134  0.33785425
   0.83325783  0.16663115  0.33796812
   0.66657926  0.83327737  0.33796394
   0.83326182  0.66660503  0.33796233
Direct configuration=    34
   0.00418639  0.00271363  0.10000100
   0.35938421  0.00277781  0.10139308
   0.00422260  0.35799346  0.10139553
   0.64920476  0.64776216  0.10136970
   0.32802568  0.32654557  0.10120816
   0.68063259  0.00284457  0.10109810
   0.00430613  0.67925617  0.10107644
   0.16653598  0.33326710  0.33798702
   0.33324398  0.16657151  0.33798797
   0.16659028  0.83330089  0.33798855
   0.33326706  0.66661642  0.33789184
   0.66659346  0.33328616  0.33789182
   0.83327723  0.16661571  0.33798891
   0.66659731  0.83325948  0.33798466
   0.83322632  0.66662336  0.33798322
Direct configuration=    35
   0.00423251  0.00278373  0.09997966
   0.35940421  0.00280302  0.10139255
   0.00424289  0.35798820  0.10139497
   0.64916215  0.64772412  0.10137185
   0.32800801  0.32654086  0.10120284
   0.68060683  0.00285776  0.10109993
   0.00430965  0.67919838  0.10107975
   0.16655652  0.33327232  0.33798993
   0.33324653  0.16658494  0.33799094
   0.16660033  0.83329559  0.33799157
   0.33325319  0.66661240  0.33789328
   0.66658714  0.33327727  0.33789326
   0.83326899  0.16662539  0.33799186
   0.66658757  0.83325657  0.33798752
   0.83322747  0.66661345  0.33798611
Direct configuration=    36
   0.00426848  0.00283842  0.09996301
   0.35941981  0.00282269  0.10139213
   0.00425872  0.35798409  0.10139454
   0.64912891  0.64769444  0.10137353
   0.32799423  0.32653719  0.10119869
   0.68058674  0.00286804  0.10110135
   0.00431239  0.67915329  0.10108232
   0.16657254  0.33327639  0.33799220
   0.33324852  0.16659541  0.33799326
   0.16660817  0.83329145  0.33799392
   0.33324238  0.66660927  0.33789440
   0.66658220  0.33327034  0.33789438
   0.83326256  0.16663295  0.33799416
   0.66657997  0.83325430  0.33798974
   0.83322836  0.66660573  0.33798836
Direct configuration=    37
   0.00427344  0.00284595  0.09996072
   0.35942196  0.00282540  0.10139207
   0.00426090  0.35798353  0.10139448
   0.64912433  0.64769035  0.10137376
   0.32799233  0.32653669  0.10119812
   0.68058397  0.00286946  0.10110155
   0.00431277  0.67914708  0.10108268
   0.16657475  0.33327695  0.33799252
   0.33324880  0.16659685  0.33799357
   0.16660925  0.83329088  0.33799424
   0.33324089  0.66660884  0.33789456
   0.66658152  0.33326938  0.33789454
   0.83326168  0.16663399  0.33799448
   0.66657893  0.83325399  0.33799005
   0.83322849  0.66660467  0.33798867
Direct configuration=    38
   0.00427131  0.00284270  0.09996171
   0.35942103  0.00282423  0.10139210
   0.00425996  0.35798377  0.10139450
   0.64912630  0.64769211  0.10137366
   0.32799315  0.32653691  0.10119836
   0.68058516  0.00286885  0.10110147
   0.00431261  0.67914976  0.10108253
   0.16657380  0.33327671  0.33799238
   0.33324868  0.16659623  0.33799344
   0.16660879  0.83329113  0.33799410
   0.33324153  0.66660902  0.33789449
   0.66658182  0.33326979  0.33789447
   0.83326206  0.16663354  0.33799434
   0.66657938  0.83325413  0.33798992
   0.83322843  0.66660512  0.33798854
Direct configuration=    39
   0.00428076  0.00285419  0.09995523
   0.35942586  0.00283375  0.10138736
   0.00427036  0.35798492  0.10138978
   0.64912122  0.64768576  0.10137171
   0.32798565  0.32653583  0.10119479
   0.68058297  0.00286441  0.10110617
   0.00430546  0.67914138  0.10108889
   0.16656101  0.33327393  0.33799431
   0.33324769  0.16658678  0.33799547
   0.16660171  0.83329725  0.33799621
   0.33324809  0.66660777  0.33789359
   0.66657990  0.33327403  0.33789357
   0.83327018  0.16662808  0.33799638
   0.66658152  0.83325723  0.33799196
   0.83323161  0.66660869  0.33799058
Direct configuration=    40
   0.00429142  0.00286715  0.09994793
   0.35943130  0.00284449  0.10138203
   0.00428210  0.35798622  0.10138446
   0.64911549  0.64767860  0.10136950
   0.32797720  0.32653463  0.10119077
   0.68058049  0.00285941  0.10111146
   0.00429740  0.67913192  0.10109607
   0.16654660  0.33327081  0.33799649
   0.33324658  0.16657612  0.33799777
   0.16659372  0.83330415  0.33799859
   0.33325549  0.66660637  0.33789257
   0.66657775  0.33327880  0.33789255
   0.83327934  0.16662191  0.33799867
   0.66658393  0.83326072  0.33799426
   0.83323519  0.66661270  0.33799288
Direct configuration=    41
   0.00429216  0.00286498  0.09994223
   0.35943346  0.00284971  0.10137686
   0.00428922  0.35798955  0.10137930
   0.64911865  0.64767959  0.10136735
   0.32797441  0.32653610  0.10118605
   0.68058134  0.00285208  0.10111621
   0.00428919  0.67913245  0.10110273
   0.16654823  0.33326936  0.33799855
   0.33324430  0.16657758  0.33799993
   0.16659470  0.83330147  0.33800085
   0.33325376  0.66660815  0.33789177
   0.66658052  0.33327768  0.33789177
   0.83327582  0.16662208  0.33800084
   0.66658600  0.83325924  0.33799646
   0.83323225  0.66661399  0.33799509
Direct configuration=    42
   0.00429424  0.00285888  0.09992619
   0.35943953  0.00286440  0.10136234
   0.00430928  0.35799890  0.10136480
   0.64912754  0.64768237  0.10136129
   0.32796657  0.32654027  0.10117276
   0.68058372  0.00283145  0.10112957
   0.00426607  0.67913394  0.10112145
   0.16655284  0.33326529  0.33800434
   0.33323788  0.16658168  0.33800603
   0.16659744  0.83329393  0.33800722
   0.33324886  0.66661316  0.33788954
   0.66658833  0.33327452  0.33788955
   0.83326590  0.16662256  0.33800695
   0.66659181  0.83325504  0.33800267
   0.83322398  0.66661761  0.33800131
Direct configuration=    43
   0.00428683  0.00284660  0.09992203
   0.35943941  0.00286146  0.10135948
   0.00430708  0.35800217  0.10136194
   0.64913356  0.64768788  0.10136078
   0.32797449  0.32654661  0.10116510
   0.68058333  0.00282903  0.10113093
   0.00426544  0.67913873  0.10112462
   0.16655972  0.33327207  0.33800615
   0.33324482  0.16658672  0.33800789
   0.16659892  0.83329277  0.33800922
   0.33324621  0.66660835  0.33789050
   0.66658089  0.33327271  0.33789051
   0.83326471  0.16662527  0.33800887
   0.66658109  0.83325534  0.33800466
   0.83322749  0.66660827  0.33800334
Direct configuration=    44
   0.00428203  0.00283866  0.09991934
   0.35943933  0.00285956  0.10135763
   0.00430567  0.35800428  0.10136008
   0.64913745  0.64769144  0.10136045
   0.32797961  0.32655072  0.10116014
   0.68058308  0.00282746  0.10113181
   0.00426504  0.67914183  0.10112667
   0.16656418  0.33327646  0.33800732
   0.33324931  0.16658999  0.33800910
   0.16659987  0.83329203  0.33801051
   0.33324450  0.66660524  0.33789111
   0.66657609  0.33327155  0.33789113
   0.83326394  0.16662703  0.33801010
   0.66657415  0.83325553  0.33800595
   0.83322975  0.66660222  0.33800465
Direct configuration=    45
   0.00427683  0.00283191  0.09991569
   0.35943821  0.00285421  0.10135625
   0.00429883  0.35800406  0.10135866
   0.64913869  0.64769430  0.10136101
   0.32798821  0.32655458  0.10115001
   0.68058328  0.00283299  0.10113044
   0.00427279  0.67914520  0.10112703
   0.16656050  0.33327407  0.33800919
   0.33324681  0.16658665  0.33801098
   0.16659948  0.83329410  0.33801256
   0.33324423  0.66660494  0.33789364
   0.66657563  0.33327136  0.33789366
   0.83326602  0.16662694  0.33801206
   0.66657558  0.83325484  0.33800804
   0.83322891  0.66660386  0.33800679
Direct configuration=    46
   0.00426121  0.00281166  0.09990473
   0.35943484  0.00283816  0.10135210
   0.00427833  0.35800340  0.10135438
   0.64914241  0.64770287  0.10136266
   0.32801402  0.32656616  0.10111962
   0.68058385  0.00284957  0.10112632
   0.00429607  0.67915532  0.10112814
   0.16654947  0.33326688  0.33801480
   0.33323929  0.16657663  0.33801662
   0.16659833  0.83330032  0.33801870
   0.33324343  0.66660403  0.33790121
   0.66657424  0.33327079  0.33790125
   0.83327224  0.16662665  0.33801795
   0.66657985  0.83325277  0.33801431
   0.83322640  0.66660877  0.33801321
Direct configuration=    47
   0.00426513  0.00281891  0.09990081
   0.35943350  0.00283775  0.10135062
   0.00427594  0.35799864  0.10135283
   0.64913934  0.64770154  0.10136246
   0.32801026  0.32655988  0.10110979
   0.68058865  0.00285715  0.10112397
   0.00430386  0.67915748  0.10112725
   0.16655164  0.33326657  0.33801696
   0.33323840  0.16657951  0.33801879
   0.16659629  0.83329495  0.33802102
   0.33324296  0.66660559  0.33790446
   0.66657684  0.33327042  0.33790451
   0.83326620  0.16662397  0.33802021
   0.66658059  0.83325275  0.33801668
   0.83322442  0.66660889  0.33801564
Direct configuration=    48
   0.00427158  0.00283085  0.09989436
   0.35943128  0.00283706  0.10134818
   0.00427199  0.35799080  0.10135028
   0.64913428  0.64769934  0.10136214
   0.32800407  0.32654954  0.10109359
   0.68059654  0.00286963  0.10112010
   0.00431669  0.67916105  0.10112580
   0.16655521  0.33326606  0.33802052
   0.33323693  0.16658425  0.33802235
   0.16659292  0.83328609  0.33802485
   0.33324219  0.66660814  0.33790982
   0.66658112  0.33326982  0.33790986
   0.83325624  0.16661955  0.33802394
   0.66658182  0.83325271  0.33802059
   0.83322115  0.66660910  0.33801963
Direct configuration=    49
   0.00427922  0.00284211  0.09989061
   0.35943225  0.00284170  0.10134612
   0.00427707  0.35798868  0.10134816
   0.64913383  0.64769815  0.10136008
   0.32799316  0.32654064  0.10108844
   0.68060075  0.00287047  0.10111774
   0.00431576  0.67916036  0.10112399
   0.16655338  0.33326865  0.33802264
   0.33324016  0.16658256  0.33802448
   0.16659203  0.83328860  0.33802708
   0.33324243  0.66660465  0.33791283
   0.66657562  0.33326994  0.33791287
   0.83325937  0.16662016  0.33802617
   0.66657583  0.83325268  0.33802285
   0.83322316  0.66660466  0.33802192
Direct configuration=    50
   0.00428463  0.00285009  0.09988795
   0.35943294  0.00284499  0.10134466
   0.00428067  0.35798717  0.10134666
   0.64913352  0.64769730  0.10135862
   0.32798543  0.32653433  0.10108478
   0.68060373  0.00287106  0.10111608
   0.00431510  0.67915987  0.10112270
   0.16655208  0.33327048  0.33802415
   0.33324244  0.16658136  0.33802599
   0.16659140  0.83329038  0.33802867
   0.33324260  0.66660218  0.33791497
   0.66657171  0.33327002  0.33791500