       N       E                     dE             d eps       ncg     rms          ort
SDA:   1    -0.143239706053E+03   -0.14324E+03   -0.14273E+00  5856   0.357E+00 0.000E+00
DMP:   2    -0.143345117331E+03   -0.10541E+00   -0.72604E-01  5856   0.117E+00 0.169E+00
DMP:   3    -0.143394967634E+03   -0.49850E-01   -0.24983E-01  5856   0.368E-01 0.671E-01
DMP:   4    -0.143411766020E+03   -0.16798E-01   -0.88958E-02  5856   0.139E-01 0.219E-01
DMP:   5    -0.143418167163E+03   -0.64011E-02   -0.40139E-02  5856   0.641E-02 0.948E-02
DMP:   6    -0.143421300472E+03   -0.31333E-02   -0.21764E-02  5856   0.340E-02 0.535E-02
DMP:   7    -0.143423064801E+03   -0.17643E-02   -0.11920E-02  5856   0.174E-02 0.325E-02
DMP:   8    -0.143424034769E+03   -0.96997E-03   -0.61235E-03  5856   0.834E-03 0.182E-02
DMP:   9    -0.143424532652E+03   -0.49788E-03   -0.29933E-03  5856   0.388E-03 0.942E-03
DMP:  10    -0.143424776120E+03   -0.24347E-03   -0.14084E-03  5856   0.176E-03 0.462E-03
DMP:  11    -0.143424891340E+03   -0.11522E-03   -0.65702E-04  5856   0.801E-04 0.220E-03
DMP:  12    -0.143424945592E+03   -0.54252E-04   -0.30801E-04  5856   0.369E-04 0.105E-03
DMP:  13    -0.143424971142E+03   -0.25549E-04   -0.14295E-04  5856   0.167E-04 0.498E-04
DMP:  14    -0.143424982999E+03   -0.11858E-04   -0.65149E-05  5856   0.747E-05 0.231E-04
DMP:  15    -0.143424988411E+03   -0.54121E-05   -0.29543E-05  5856   0.336E-05 0.105E-04
DMP:  16    -0.143424990882E+03   -0.24709E-05   -0.13587E-05  5856   0.156E-05 0.482E-05
DMP:  17    -0.143424992033E+03   -0.11509E-05   -0.64556E-06  5856   0.752E-06 0.226E-05
DMP:  18    -0.143424992590E+03   -0.55684E-06   -0.32319E-06  5856   0.387E-06 0.110E-05
   1 F= -.14342499E+03 E0= -.14342499E+03  d E =-.359125E-10
       N       E                     dE             ncg
DAV:   1    -0.128174540368E+05   -0.43660E+05    17568
DAV:   2    -0.342436184176E+05   -0.21426E+05    23424
DAV:   3    -0.353826542518E+05   -0.11390E+04    23424
DAV:   4    -0.354249878539E+05   -0.42334E+02    23424
DAV:   5    -0.354270252766E+05   -0.20374E+01    23424
DAV:   6    -0.354271424462E+05   -0.11717E+00    23424
DAV:   7    -0.354271498041E+05   -0.73579E-02    23424
DAV:   8    -0.354271502983E+05   -0.49415E-03    23424
DAV:   9    -0.354271503330E+05   -0.34728E-04    23424
DAV:  10    -0.354271503355E+05   -0.25347E-05    23424
DAV:  11    -0.354271503357E+05   -0.19076E-06    23424
       N       E                     dE             ncg
DAV:   1    -0.128363356743E+05   -0.51552E+05    17568
DAV:   2    -0.344648387569E+05   -0.21629E+05    23424
DAV:   3    -0.355677957927E+05   -0.11030E+04    23424
DAV:   4    -0.356074782957E+05   -0.39683E+02    23424
DAV:   5    -0.356093369467E+05   -0.18587E+01    23424
DAV:   6    -0.356094408314E+05   -0.10388E+00    23424
DAV:   7    -0.356094471706E+05   -0.63392E-02    23424
DAV:   8    -0.356094475857E+05   -0.41508E-03    23424
DAV:   9    -0.356094476142E+05   -0.28486E-04    23424
DAV:  10    -0.356094476162E+05   -0.20374E-05    23424
DAV:  11    -0.356094476164E+05   -0.15048E-06    23424
       N       E                     dE             ncg
DAV:   1    -0.128117122767E+05   -0.52771E+05    17568
DAV:   2    -0.344765086822E+05   -0.21665E+05    23424
DAV:   3    -0.355778361068E+05   -0.11013E+04    23424
DAV:   4    -0.356176275711E+05   -0.39791E+02    23424
DAV:   5    -0.356194941224E+05   -0.18666E+01    23424
DAV:   6    -0.356195986448E+05   -0.10452E+00    23424
DAV:   7    -0.356196050440E+05   -0.63992E-02    23424
DAV:   8    -0.356196054644E+05   -0.42033E-03    23424
DAV:   9    -0.356196054933E+05   -0.28951E-04    23424
DAV:  10    -0.356196054954E+05   -0.20782E-05    23424
DAV:  11    -0.356196054955E+05   -0.15393E-06    23424
       N       E                     dE             ncg
DAV:   1    -0.128240218232E+05   -0.65380E+05    17568
DAV:   2    -0.347113564276E+05   -0.21887E+05    23424
DAV:   3    -0.357678982089E+05   -0.10565E+04    23424
DAV:   4    -0.358051077177E+05   -0.37210E+02    23424
DAV:   5    -0.358068234326E+05   -0.17157E+01    23424
DAV:   6    -0.358069179654E+05   -0.94533E-01    23424
DAV:   7    -0.358069236763E+05   -0.57108E-02    23424
DAV:   8    -0.358069240469E+05   -0.37066E-03    23424
DAV:   9    -0.358069240722E+05   -0.25272E-04    23424
DAV:  10    -0.358069240740E+05   -0.17970E-05    23424
DAV:  11    -0.358069240741E+05   -0.13209E-06    23424
       N       E                     dE             ncg
DAV:   1    -0.126523495794E+05   -0.70621E+05    17568
DAV:   2    -0.347999462096E+05   -0.22148E+05    23424
DAV:   3    -0.358556476346E+05   -0.10557E+04    23424
DAV:   4    -0.358924733892E+05   -0.36826E+02    23424
DAV:   5    -0.358941624271E+05   -0.16890E+01    23424
DAV:   6    -0.358942551254E+05   -0.92698E-01    23424
DAV:   7    -0.358942607001E+05   -0.55747E-02    23424
DAV:   8    -0.358942610603E+05   -0.36016E-03    23424
DAV:   9    -0.358942610847E+05   -0.24432E-04    23424
DAV:  10    -0.358942610864E+05   -0.17281E-05    23424
DAV:  11    -0.358942610866E+05   -0.12646E-06    23424
       N       E                     dE             ncg
DAV:   1    -0.126816851640E+05   -0.73673E+05    17568
DAV:   2    -0.348781607507E+05   -0.22196E+05    23424
DAV:   3    -0.359059627313E+05   -0.10278E+04    23424
DAV:   4    -0.359413973313E+05   -0.35435E+02    23424
DAV:   5    -0.359430052692E+05   -0.16079E+01    23424
DAV:   6    -0.359430926405E+05   -0.87371E-01    23424
DAV:   7    -0.359430978511E+05   -0.52106E-02    23424
DAV:   8    -0.359430981859E+05   -0.33481E-03    23424
DAV:   9    -0.359430982086E+05   -0.22646E-04    23424
DAV:  10    -0.359430982102E+05   -0.16033E-05    23424
DAV:  11    -0.359430982103E+05   -0.11768E-06    23424
       N       E                     dE             ncg
DAV:   1    -0.126069561431E+05   -0.80645E+05    17568
DAV:   2    -0.349633941900E+05   -0.22356E+05    23424
DAV:   3    -0.359773378429E+05   -0.10139E+04    23424
DAV:   4    -0.360118503336E+05   -0.34512E+02    23424
DAV:   5    -0.360134064537E+05   -0.15561E+01    23424
DAV:   6    -0.360134904870E+05   -0.84033E-01    23424
DAV:   7    -0.360134954871E+05   -0.50001E-02    23424
DAV:   8    -0.360134958088E+05   -0.32165E-03    23424
DAV:   9    -0.360134958306E+05   -0.21883E-04    23424
DAV:  10    -0.360134958322E+05   -0.15639E-05    23424
DAV:  11    -0.360134958323E+05   -0.11626E-06    23424
       N       E                     dE             ncg
DAV:   1    -0.124775642517E+05   -0.90240E+05    17568
DAV:   2    -0.350606957520E+05   -0.22583E+05    23424
DAV:   3    -0.360656937895E+05   -0.10050E+04    23424
DAV:   4    -0.360996962559E+05   -0.34002E+02    23424
DAV:   5    -0.361012175004E+05   -0.15212E+01    23424
DAV:   6    -0.361012991137E+05   -0.81613E-01    23424
DAV:   7    -0.361013039579E+05   -0.48442E-02    23424
DAV:   8    -0.361013042712E+05   -0.31330E-03    23424
DAV:   9    -0.361013042928E+05   -0.21611E-04    23424
DAV:  10    -0.361013042944E+05   -0.15796E-05    23424
DAV:  11    -0.361013042945E+05   -0.12093E-06    23424
       N       E                     dE             ncg
DAV:   1    -0.607645556034E+04   -0.89542E+05    16416
DAV:   2    -0.272968834980E+05   -0.21220E+05    21888
DAV:   3    -0.282254699382E+05   -0.92859E+03    21888
DAV:   4    -0.282569213620E+05   -0.31451E+02    21888
DAV:   5    -0.282583291058E+05   -0.14077E+01    21888
DAV:   6    -0.282584046940E+05   -0.75588E-01    21888
DAV:   7    -0.282584092161E+05   -0.45221E-02    21888
DAV:   8    -0.282584095143E+05   -0.29826E-03    21888
DAV:   9    -0.282584095355E+05   -0.21195E-04    21888
DAV:  10    -0.282584095371E+05   -0.16148E-05    21888
DAV:  11    -0.282584095373E+05   -0.12967E-06    21888
