BC3                                     
           1
     4.476485    2.584500    0.000000
    -4.476485    2.584500    0.000000
     0.000000    0.000000   15.000000
   B    C 
   2   6
Direct configuration=     1
   0.33833034  0.66916432  0.25000000
   0.67165522  0.33584146  0.25000000
   0.16373946  0.31999962  0.25000000
   0.32250218  0.16126397  0.25000000
   0.16376430  0.84376384  0.25000000
   0.84623863  0.16123684  0.25000000
   0.68749850  0.84373000  0.25000000
   0.84626736  0.68499594  0.25000000
Direct configuration=     2
   0.33833612  0.66916669  0.25000000
   0.67168044  0.33582093  0.25000000
   0.16362730  0.31977643  0.25000000
   0.32226924  0.16114385  0.25000000
   0.16365448  0.84386666  0.25000000
   0.84633913  0.16113212  0.25000000
   0.68772895  0.84386323  0.25000000
   0.84636033  0.68522608  0.25000000
Direct configuration=     3
   0.33833222  0.66916509  0.25000000
   0.67166341  0.33583479  0.25000000
   0.16370303  0.31992713  0.25000000
   0.32242653  0.16122495  0.25000000
   0.16372863  0.84379724  0.25000000
   0.84627127  0.16120283  0.25000000
   0.68757335  0.84377327  0.25000000
   0.84629755  0.68507069  0.25000000
