  15  15   0   4
  0.2016161E+02  0.4825000E-09  0.4825000E-09  0.1500000E-08  0.5000000E-15
  1.000000000000000E-004
  CAR 
 Lattice                                 
     10.40766079    -21.76103840  301     -0.27421429      1.00000000
    -21.761  0.0000E+00  0.0000E+00  0.0000E+00  0.0000E+00
    -21.654  0.0000E+00  0.0000E+00  0.0000E+00  0.0000E+00
    -21.547  0.0000E+00  0.0000E+00  0.0000E+00  0.0000E+00
    -21.439  0.0000E+00  0.0000E+00  0.0000E+00  0.0000E+00
    -21.332  0.0000E+00  0.0000E+00  0.0000E+00  0.0000E+00
    -21.225  0.0000E+00  0.0000E+00  0.0000E+00  0.0000E+00
    -21.118  0.0000E+00  0.0000E+00  0.0000E+00  0.0000E+00
    -21.010  0.0000E+00  0.0000E+00  0.0000E+00  0.0000E+00
    -20.903  0.0000E+00  0.0000E+00  0.0000E+00  0.0000E+00
    -20.796  0.5541E-15  0.5541E-15  0.5941E-16  0.5941E-16
    -20.689  0.1030E-10  0.1030E-10  0.1104E-11  0.1104E-11
    -20.582  0.2254E-07  0.2254E-07  0.2418E-08  0.2418E-08
    -20.474  0.6408E-05  0.6408E-05  0.6895E-06  0.6895E-06
    -20.367  0.2650E-03  0.2650E-03  0.2911E-04  0.2911E-04
    -20.260  0.1955E-02  0.1955E-02  0.2387E-03  0.2387E-03
    -20.153  0.4122E-02  0.4122E-02  0.6808E-03  0.6808E-03
    -20.045  0.4477E-02  0.4477E-02  0.1161E-02  0.1161E-02
    -19.938  0.4908E-02  0.4908E-02  0.1687E-02  0.1687E-02
    -19.831  0.4106E-02  0.4106E-02  0.2127E-02  0.2127E-02
    -19.724  0.5340E-02  0.5340E-02  0.2700E-02  0.2700E-02
    -19.616  0.4212E-02  0.4212E-02  0.3152E-02  0.3152E-02
    -19.509  0.4159E-02  0.4159E-02  0.3598E-02  0.3598E-02
    -19.402  0.5983E-02  0.5983E-02  0.4239E-02  0.4239E-02
    -19.295  0.3848E-02  0.3848E-02  0.4652E-02  0.4652E-02
    -19.188  0.3752E-02  0.3752E-02  0.5054E-02  0.5054E-02
    -19.080  0.6052E-02  0.6052E-02  0.5703E-02  0.5703E-02
    -18.973  0.5243E-02  0.5243E-02  0.6265E-02  0.6265E-02
    -18.866  0.3002E-02  0.3002E-02  0.6587E-02  0.6587E-02
    -18.759  0.4130E-02  0.4130E-02  0.7030E-02  0.7030E-02
    -18.651  0.6903E-02  0.6903E-02  0.7770E-02  0.7770E-02
    -18.544  0.4637E-02  0.4637E-02  0.8267E-02  0.8267E-02
    -18.437  0.3810E-02  0.3810E-02  0.8676E-02  0.8676E-02
    -18.330  0.2871E-02  0.2871E-02  0.8984E-02  0.8984E-02
    -18.222  0.6337E-02  0.6337E-02  0.9663E-02  0.9663E-02
    -18.115  0.6750E-02  0.6750E-02  0.1039E-01  0.1039E-01
    -18.008  0.3686E-02  0.3686E-02  0.1078E-01  0.1078E-01
    -17.901  0.3142E-02  0.3142E-02  0.1112E-01  0.1112E-01
    -17.794  0.4020E-02  0.4020E-02  0.1155E-01  0.1155E-01
    -17.686  0.5921E-02  0.5921E-02  0.1219E-01  0.1219E-01
    -17.579  0.6860E-02  0.6860E-02  0.1292E-01  0.1292E-01
    -17.472  0.5514E-02  0.5514E-02  0.1351E-01  0.1351E-01
    -17.365  0.6317E-02  0.6317E-02  0.1419E-01  0.1419E-01
    -17.257  0.9594E-02  0.9594E-02  0.1522E-01  0.1522E-01
    -17.150  0.1418E-01  0.1418E-01  0.1674E-01  0.1674E-01
    -17.043  0.1546E-01  0.1546E-01  0.1840E-01  0.1840E-01
    -16.936  0.1657E-01  0.1657E-01  0.2017E-01  0.2017E-01
    -16.829  0.2026E-01  0.2026E-01  0.2235E-01  0.2235E-01
    -16.721  0.1764E-01  0.1764E-01  0.2424E-01  0.2424E-01
    -16.614  0.5746E-02  0.5746E-02  0.2485E-01  0.2485E-01
    -16.507  0.6443E-02  0.6443E-02  0.2554E-01  0.2554E-01
    -16.400  0.8603E-02  0.8603E-02  0.2647E-01  0.2647E-01
    -16.292  0.4713E-02  0.4713E-02  0.2697E-01  0.2697E-01
    -16.185  0.4199E-02  0.4199E-02  0.2742E-01  0.2742E-01
    -16.078  0.3743E-02  0.3743E-02  0.2782E-01  0.2782E-01
    -15.971  0.3975E-02  0.3975E-02  0.2825E-01  0.2825E-01
    -15.863  0.3258E-02  0.3258E-02  0.2860E-01  0.2860E-01
    -15.756  0.7272E-02  0.7272E-02  0.2938E-01  0.2938E-01
    -15.649  0.8601E-02  0.8601E-02  0.3030E-01  0.3030E-01
    -15.542  0.4297E-02  0.4297E-02  0.3076E-01  0.3076E-01
    -15.435  0.3812E-02  0.3812E-02  0.3117E-01  0.3117E-01
    -15.327  0.3261E-02  0.3261E-02  0.3152E-01  0.3152E-01
    -15.220  0.4269E-02  0.4269E-02  0.3198E-01  0.3198E-01
    -15.113  0.5785E-02  0.5785E-02  0.3260E-01  0.3260E-01
    -15.006  0.9569E-02  0.9569E-02  0.3362E-01  0.3362E-01
    -14.898  0.1611E-01  0.1611E-01  0.3535E-01  0.3535E-01
    -14.791  0.1829E-01  0.1829E-01  0.3731E-01  0.3731E-01
    -14.684  0.1745E-01  0.1745E-01  0.3918E-01  0.3918E-01
    -14.577  0.1267E-01  0.1267E-01  0.4054E-01  0.4054E-01
    -14.469  0.7434E-02  0.7434E-02  0.4134E-01  0.4134E-01
    -14.362  0.1257E-01  0.1257E-01  0.4269E-01  0.4269E-01
    -14.255  0.1620E-01  0.1620E-01  0.4443E-01  0.4443E-01
    -14.148  0.1210E-01  0.1210E-01  0.4572E-01  0.4572E-01
    -14.041  0.1095E-01  0.1095E-01  0.4690E-01  0.4690E-01
    -13.933  0.1144E-01  0.1144E-01  0.4812E-01  0.4812E-01
    -13.826  0.1852E-01  0.1852E-01  0.5011E-01  0.5011E-01
    -13.719  0.2011E-01  0.2011E-01  0.5227E-01  0.5227E-01
    -13.612  0.1851E-01  0.1851E-01  0.5425E-01  0.5425E-01
    -13.504  0.1292E-01  0.1292E-01  0.5564E-01  0.5564E-01
    -13.397  0.7514E-02  0.7514E-02  0.5644E-01  0.5644E-01
    -13.290  0.3265E-02  0.3265E-02  0.5679E-01  0.5679E-01
    -13.183  0.3685E-02  0.3685E-02  0.5719E-01  0.5719E-01
    -13.075  0.6268E-02  0.6268E-02  0.5786E-01  0.5786E-01
    -12.968  0.7195E-02  0.7195E-02  0.5863E-01  0.5863E-01
    -12.861  0.4860E-02  0.4860E-02  0.5915E-01  0.5915E-01
    -12.754  0.6081E-02  0.6081E-02  0.5980E-01  0.5980E-01
    -12.647  0.6945E-02  0.6945E-02  0.6055E-01  0.6055E-01
    -12.539  0.5908E-02  0.5908E-02  0.6118E-01  0.6118E-01
    -12.432  0.5421E-02  0.5421E-02  0.6176E-01  0.6176E-01
    -12.325  0.3679E-02  0.3679E-02  0.6216E-01  0.6216E-01
    -12.218  0.5319E-02  0.5319E-02  0.6273E-01  0.6273E-01
    -12.110  0.8215E-02  0.8215E-02  0.6361E-01  0.6361E-01
    -12.003  0.4158E-02  0.4158E-02  0.6406E-01  0.6406E-01
    -11.896  0.3204E-02  0.3204E-02  0.6440E-01  0.6440E-01
    -11.789  0.3404E-02  0.3404E-02  0.6476E-01  0.6476E-01
    -11.682  0.4887E-02  0.4887E-02  0.6529E-01  0.6529E-01
    -11.574  0.7019E-02  0.7019E-02  0.6604E-01  0.6604E-01
    -11.467  0.4805E-02  0.4805E-02  0.6656E-01  0.6656E-01
    -11.360  0.1818E-02  0.1818E-02  0.6675E-01  0.6675E-01
    -11.253  0.4077E-02  0.4077E-02  0.6719E-01  0.6719E-01
    -11.145  0.5815E-02  0.5815E-02  0.6781E-01  0.6781E-01
    -11.038  0.5703E-02  0.5703E-02  0.6842E-01  0.6842E-01
    -10.931  0.7318E-02  0.7318E-02  0.6921E-01  0.6921E-01
    -10.824  0.6465E-02  0.6465E-02  0.6990E-01  0.6990E-01
    -10.716  0.2723E-02  0.2723E-02  0.7019E-01  0.7019E-01
    -10.609  0.7188E-02  0.7188E-02  0.7096E-01  0.7096E-01
    -10.502  0.1179E-01  0.1179E-01  0.7223E-01  0.7223E-01
    -10.395  0.1516E-01  0.1516E-01  0.7385E-01  0.7385E-01
    -10.288  0.1601E-01  0.1601E-01  0.7557E-01  0.7557E-01
    -10.180  0.1447E-01  0.1447E-01  0.7712E-01  0.7712E-01
    -10.073  0.1685E-01  0.1685E-01  0.7893E-01  0.7893E-01
     -9.966  0.1861E-01  0.1861E-01  0.8092E-01  0.8092E-01
     -9.859  0.1034E-01  0.1034E-01  0.8203E-01  0.8203E-01
     -9.751  0.6911E-02  0.6911E-02  0.8277E-01  0.8277E-01
     -9.644  0.1337E-01  0.1337E-01  0.8421E-01  0.8421E-01
     -9.537  0.1489E-01  0.1489E-01  0.8580E-01  0.8580E-01
     -9.430  0.1597E-01  0.1597E-01  0.8752E-01  0.8752E-01
     -9.322  0.1612E-01  0.1612E-01  0.8925E-01  0.8925E-01
     -9.215  0.1464E-01  0.1464E-01  0.9082E-01  0.9082E-01
     -9.108  0.1068E-01  0.1068E-01  0.9196E-01  0.9196E-01
     -9.001  0.6458E-02  0.6458E-02  0.9265E-01  0.9265E-01
     -8.894  0.1419E-01  0.1419E-01  0.9417E-01  0.9417E-01
     -8.786  0.2175E-01  0.2175E-01  0.9651E-01  0.9651E-01
     -8.679  0.1650E-01  0.1650E-01  0.9828E-01  0.9828E-01
     -8.572  0.7958E-02  0.7958E-02  0.9913E-01  0.9913E-01
     -8.465  0.9437E-02  0.9437E-02  0.1001E+00  0.1001E+00
     -8.357  0.1992E-01  0.1992E-01  0.1023E+00  0.1023E+00
     -8.250  0.2120E-01  0.2120E-01  0.1046E+00  0.1046E+00
     -8.143  0.1137E-01  0.1137E-01  0.1058E+00  0.1058E+00
     -8.036  0.1470E-01  0.1470E-01  0.1073E+00  0.1073E+00
     -7.928  0.2391E-01  0.2391E-01  0.1099E+00  0.1099E+00
     -7.821  0.2397E-01  0.2397E-01  0.1125E+00  0.1125E+00
     -7.714  0.2234E-01  0.2234E-01  0.1149E+00  0.1149E+00
     -7.607  0.1127E-01  0.1127E-01  0.1161E+00  0.1161E+00
     -7.500  0.7918E-02  0.7918E-02  0.1169E+00  0.1169E+00
     -7.392  0.1804E-01  0.1804E-01  0.1189E+00  0.1189E+00
     -7.285  0.1751E-01  0.1751E-01  0.1207E+00  0.1207E+00
     -7.178  0.1177E-01  0.1177E-01  0.1220E+00  0.1220E+00
     -7.071  0.1222E-01  0.1222E-01  0.1233E+00  0.1233E+00
     -6.963  0.1684E-01  0.1684E-01  0.1251E+00  0.1251E+00
     -6.856  0.1726E-01  0.1726E-01  0.1270E+00  0.1270E+00
     -6.749  0.1802E-01  0.1802E-01  0.1289E+00  0.1289E+00
     -6.642  0.2220E-01  0.2220E-01  0.1313E+00  0.1313E+00
     -6.535  0.2027E-01  0.2027E-01  0.1335E+00  0.1335E+00
     -6.427  0.2006E-01  0.2006E-01  0.1356E+00  0.1356E+00
     -6.320  0.1677E-01  0.1677E-01  0.1374E+00  0.1374E+00
     -6.213  0.1672E-01  0.1672E-01  0.1392E+00  0.1392E+00
     -6.106  0.2496E-01  0.2496E-01  0.1419E+00  0.1419E+00
     -5.998  0.2444E-01  0.2444E-01  0.1445E+00  0.1445E+00
     -5.891  0.3023E-01  0.3023E-01  0.1477E+00  0.1477E+00
     -5.784  0.2742E-01  0.2742E-01  0.1507E+00  0.1507E+00
     -5.677  0.1701E-01  0.1701E-01  0.1525E+00  0.1525E+00
     -5.569  0.1933E-01  0.1933E-01  0.1546E+00  0.1546E+00
     -5.462  0.3133E-01  0.3133E-01  0.1579E+00  0.1579E+00
     -5.355  0.3371E-01  0.3371E-01  0.1616E+00  0.1616E+00
     -5.248  0.2565E-01  0.2565E-01  0.1643E+00  0.1643E+00
     -5.141  0.1787E-01  0.1787E-01  0.1662E+00  0.1662E+00
     -5.033  0.1033E-01  0.1033E-01  0.1673E+00  0.1673E+00
     -4.926  0.8355E-02  0.8355E-02  0.1682E+00  0.1682E+00
     -4.819  0.1424E-01  0.1424E-01  0.1698E+00  0.1698E+00
     -4.712  0.1298E-01  0.1298E-01  0.1711E+00  0.1711E+00
     -4.604  0.9005E-02  0.9005E-02  0.1721E+00  0.1721E+00
     -4.497  0.8235E-02  0.8235E-02  0.1730E+00  0.1730E+00
     -4.390  0.1281E-01  0.1281E-01  0.1744E+00  0.1744E+00
     -4.283  0.2234E-01  0.2234E-01  0.1768E+00  0.1768E+00
     -4.175  0.1872E-01  0.1872E-01  0.1788E+00  0.1788E+00
     -4.068  0.1919E-01  0.1919E-01  0.1808E+00  0.1808E+00
     -3.961  0.2213E-01  0.2213E-01  0.1832E+00  0.1832E+00
     -3.854  0.2534E-01  0.2534E-01  0.1859E+00  0.1859E+00
     -3.747  0.1896E-01  0.1896E-01  0.1880E+00  0.1880E+00
     -3.639  0.1763E-01  0.1763E-01  0.1898E+00  0.1898E+00
     -3.532  0.1969E-01  0.1969E-01  0.1920E+00  0.1920E+00
     -3.425  0.1624E-01  0.1624E-01  0.1937E+00  0.1937E+00
     -3.318  0.1376E-01  0.1376E-01  0.1952E+00  0.1952E+00
     -3.210  0.1363E-01  0.1363E-01  0.1966E+00  0.1966E+00
     -3.103  0.1760E-01  0.1760E-01  0.1985E+00  0.1985E+00
     -2.996  0.1793E-01  0.1793E-01  0.2004E+00  0.2004E+00
     -2.889  0.1201E-01  0.1201E-01  0.2017E+00  0.2017E+00
     -2.782  0.1221E-01  0.1221E-01  0.2030E+00  0.2030E+00
     -2.674  0.7461E-02  0.7461E-02  0.2038E+00  0.2038E+00
     -2.567  0.9848E-02  0.9848E-02  0.2049E+00  0.2049E+00
     -2.460  0.1913E-01  0.1913E-01  0.2069E+00  0.2069E+00
     -2.353  0.1481E-01  0.1481E-01  0.2085E+00  0.2085E+00
     -2.245  0.4009E-02  0.4009E-02  0.2090E+00  0.2090E+00
     -2.138  0.4643E-02  0.4643E-02  0.2095E+00  0.2095E+00
     -2.031  0.1039E-01  0.1039E-01  0.2106E+00  0.2106E+00
     -1.924  0.9934E-02  0.9934E-02  0.2116E+00  0.2116E+00
     -1.816  0.1090E-01  0.1090E-01  0.2128E+00  0.2128E+00
     -1.709  0.1133E-01  0.1133E-01  0.2140E+00  0.2140E+00
     -1.602  0.9710E-02  0.9710E-02  0.2151E+00  0.2151E+00
     -1.495  0.7287E-02  0.7287E-02  0.2158E+00  0.2158E+00
     -1.388  0.4453E-02  0.4453E-02  0.2163E+00  0.2163E+00
     -1.280  0.3896E-02  0.3896E-02  0.2167E+00  0.2167E+00
     -1.173  0.4116E-02  0.4116E-02  0.2172E+00  0.2172E+00
     -1.066  0.3590E-02  0.3590E-02  0.2176E+00  0.2176E+00
     -0.959  0.5745E-02  0.5745E-02  0.2182E+00  0.2182E+00
     -0.851  0.3427E-02  0.3427E-02  0.2186E+00  0.2186E+00
     -0.744  0.7514E-03  0.7514E-03  0.2186E+00  0.2186E+00
     -0.637  0.9069E-04  0.9069E-04  0.2186E+00  0.2186E+00
     -0.530  0.2432E-05  0.2432E-05  0.2186E+00  0.2186E+00
     -0.422  0.3706E-04  0.3706E-04  0.2186E+00  0.2186E+00
     -0.315  0.5331E-03  0.5331E-03  0.2187E+00  0.2187E+00
     -0.208  0.1098E-02  0.1098E-02  0.2188E+00  0.2188E+00
     -0.101  0.3409E-03  0.3409E-03  0.2189E+00  0.2189E+00
      0.006  0.1475E-04  0.1475E-04  0.2189E+00  0.2189E+00
      0.114  0.1264E-06  0.1264E-06  0.2189E+00  0.2189E+00
      0.221  0.1532E-04  0.1532E-04  0.2189E+00  0.2189E+00
      0.328  0.5864E-03  0.5864E-03  0.2189E+00  0.2189E+00
      0.435  0.2986E-02  0.2986E-02  0.2192E+00  0.2192E+00
      0.543  0.2272E-02  0.2272E-02  0.2195E+00  0.2195E+00
      0.650  0.9578E-03  0.9578E-03  0.2196E+00  0.2196E+00
      0.757  0.3162E-02  0.3162E-02  0.2199E+00  0.2199E+00
      0.864  0.5176E-02  0.5176E-02  0.2205E+00  0.2205E+00
      0.972  0.7678E-02  0.7678E-02  0.2213E+00  0.2213E+00
      1.079  0.2241E-01  0.2241E-01  0.2237E+00  0.2237E+00
      1.186  0.2393E-01  0.2393E-01  0.2263E+00  0.2263E+00
      1.293  0.6629E-02  0.6629E-02  0.2270E+00  0.2270E+00
      1.400  0.3554E-02  0.3554E-02  0.2274E+00  0.2274E+00
      1.508  0.7145E-02  0.7145E-02  0.2281E+00  0.2281E+00
      1.615  0.1171E-01  0.1171E-01  0.2294E+00  0.2294E+00
      1.722  0.1783E-01  0.1783E-01  0.2313E+00  0.2313E+00
      1.829  0.1699E-01  0.1699E-01  0.2331E+00  0.2331E+00
      1.937  0.7882E-02  0.7882E-02  0.2340E+00  0.2340E+00
      2.044  0.6016E-02  0.6016E-02  0.2346E+00  0.2346E+00
      2.151  0.9948E-02  0.9948E-02  0.2357E+00  0.2357E+00
      2.258  0.7715E-02  0.7715E-02  0.2365E+00  0.2365E+00
      2.365  0.7457E-02  0.7457E-02  0.2373E+00  0.2373E+00
      2.473  0.8161E-02  0.8161E-02  0.2382E+00  0.2382E+00
      2.580  0.8532E-02  0.8532E-02  0.2391E+00  0.2391E+00
      2.687  0.1160E-01  0.1160E-01  0.2403E+00  0.2403E+00
      2.794  0.7999E-02  0.7999E-02  0.2412E+00  0.2412E+00
      2.902  0.5125E-02  0.5124E-02  0.2417E+00  0.2417E+00
      3.009  0.8526E-02  0.8526E-02  0.2427E+00  0.2427E+00
      3.116  0.1214E-01  0.1214E-01  0.2440E+00  0.2440E+00
      3.223  0.9525E-02  0.9525E-02  0.2450E+00  0.2450E+00
      3.331  0.1018E-01  0.1018E-01  0.2461E+00  0.2461E+00
      3.438  0.9761E-02  0.9762E-02  0.2471E+00  0.2471E+00
      3.545  0.9028E-02  0.9028E-02  0.2481E+00  0.2481E+00
      3.652  0.1515E-01  0.1515E-01  0.2497E+00  0.2497E+00
      3.759  0.1944E-01  0.1944E-01  0.2518E+00  0.2518E+00
      3.867  0.2241E-01  0.2241E-01  0.2542E+00  0.2542E+00
      3.974  0.2102E-01  0.2102E-01  0.2565E+00  0.2565E+00
      4.081  0.2171E-01  0.2171E-01  0.2588E+00  0.2588E+00
      4.188  0.2279E-01  0.2279E-01  0.2612E+00  0.2612E+00
      4.296  0.2538E-01  0.2538E-01  0.2639E+00  0.2639E+00
      4.403  0.2628E-01  0.2628E-01  0.2668E+00  0.2668E+00
      4.510  0.2446E-01  0.2445E-01  0.2694E+00  0.2694E+00
      4.617  0.2490E-01  0.2490E-01  0.2721E+00  0.2721E+00
      4.725  0.2265E-01  0.2265E-01  0.2745E+00  0.2745E+00
      4.832  0.2481E-01  0.2481E-01  0.2771E+00  0.2771E+00
      4.939  0.2437E-01  0.2437E-01  0.2798E+00  0.2798E+00
      5.046  0.2328E-01  0.2328E-01  0.2823E+00  0.2823E+00
      5.153  0.2570E-01  0.2571E-01  0.2850E+00  0.2850E+00
      5.261  0.2553E-01  0.2553E-01  0.2878E+00  0.2878E+00
      5.368  0.2260E-01  0.2260E-01  0.2902E+00  0.2902E+00
      5.475  0.1975E-01  0.1975E-01  0.2923E+00  0.2923E+00
      5.582  0.2110E-01  0.2110E-01  0.2946E+00  0.2946E+00
      5.690  0.2949E-01  0.2949E-01  0.2977E+00  0.2977E+00
      5.797  0.2703E-01  0.2704E-01  0.3006E+00  0.3006E+00
      5.904  0.2092E-01  0.2093E-01  0.3029E+00  0.3029E+00
      6.011  0.1717E-01  0.1717E-01  0.3047E+00  0.3047E+00
      6.119  0.2069E-01  0.2069E-01  0.3069E+00  0.3069E+00
      6.226  0.1719E-01  0.1719E-01  0.3088E+00  0.3088E+00
      6.333  0.1747E-01  0.1747E-01  0.3106E+00  0.3106E+00
      6.440  0.2201E-01  0.2201E-01  0.3130E+00  0.3130E+00
      6.547  0.2438E-01  0.2438E-01  0.3156E+00  0.3156E+00
      6.655  0.2420E-01  0.2420E-01  0.3182E+00  0.3182E+00
      6.762  0.2487E-01  0.2487E-01  0.3209E+00  0.3209E+00
      6.869  0.3255E-01  0.3255E-01  0.3244E+00  0.3244E+00
      6.976  0.2982E-01  0.2982E-01  0.3276E+00  0.3276E+00
      7.084  0.2655E-01  0.2655E-01  0.3304E+00  0.3304E+00
      7.191  0.2609E-01  0.2609E-01  0.3332E+00  0.3332E+00
      7.298  0.2152E-01  0.2152E-01  0.3355E+00  0.3355E+00
      7.405  0.1606E-01  0.1606E-01  0.3372E+00  0.3372E+00
      7.512  0.2322E-01  0.2322E-01  0.3397E+00  0.3397E+00
      7.620  0.2274E-01  0.2275E-01  0.3422E+00  0.3422E+00
      7.727  0.2040E-01  0.2040E-01  0.3444E+00  0.3444E+00
      7.834  0.2637E-01  0.2636E-01  0.3472E+00  0.3472E+00
      7.941  0.2996E-01  0.2996E-01  0.3504E+00  0.3504E+00
      8.049  0.3352E-01  0.3352E-01  0.3540E+00  0.3540E+00
      8.156  0.3286E-01  0.3287E-01  0.3575E+00  0.3575E+00
      8.263  0.2997E-01  0.2997E-01  0.3607E+00  0.3607E+00
      8.370  0.2807E-01  0.2808E-01  0.3637E+00  0.3637E+00
      8.478  0.3425E-01  0.3425E-01  0.3674E+00  0.3674E+00
      8.585  0.3343E-01  0.3343E-01  0.3710E+00  0.3710E+00
      8.692  0.1954E-01  0.1954E-01  0.3731E+00  0.3731E+00
      8.799  0.9935E-02  0.9935E-02  0.3742E+00  0.3742E+00
      8.906  0.4130E-02  0.4131E-02  0.3746E+00  0.3746E+00
      9.014  0.3088E-02  0.3088E-02  0.3749E+00  0.3749E+00
      9.121  0.6722E-03  0.6720E-03  0.3750E+00  0.3750E+00
      9.228  0.2300E-04  0.2299E-04  0.3750E+00  0.3750E+00
      9.335  0.1036E-06  0.1035E-06  0.3750E+00  0.3750E+00
      9.443  0.5455E-10  0.5448E-10  0.3750E+00  0.3750E+00
      9.550  0.3144E-14  0.3139E-14  0.3750E+00  0.3750E+00
      9.657  0.0000E+00  0.0000E+00  0.3750E+00  0.3750E+00
      9.764  0.0000E+00  0.0000E+00  0.3750E+00  0.3750E+00
      9.872  0.0000E+00  0.0000E+00  0.3750E+00  0.3750E+00
      9.979  0.0000E+00  0.0000E+00  0.3750E+00  0.3750E+00
     10.086  0.0000E+00  0.0000E+00  0.3750E+00  0.3750E+00
     10.193  0.0000E+00  0.0000E+00  0.3750E+00  0.3750E+00
     10.300  0.0000E+00  0.0000E+00  0.3750E+00  0.3750E+00
     10.408  0.0000E+00  0.0000E+00  0.3750E+00  0.3750E+00
