Lattice                                 
           1
     4.178573    2.412500    0.000000
    -4.178573    2.412500    0.000000
     0.000000    0.000000   15.000000
   B    C 
     4    11
Direct configuration=     1
   0.00415361  0.00267210  0.12034134
   0.35695335  0.00285503  0.09748893
   0.00423858  0.35550699  0.09749256
   0.65142295  0.65006557  0.09747688
   0.32808646  0.32671938  0.10030508
   0.68027775  0.00278085  0.10027562
   0.00416530  0.67883808  0.10026559
   0.99999933  0.49999967  0.33373333
   0.16666633  0.33333267  0.33373333
   0.99999933  0.99999967  0.33373333
   0.16666633  0.83333267  0.33373333
   0.49999933  0.49999967  0.33373333
   0.66666633  0.33333267  0.33373333
   0.49999933  0.99999967  0.33373333
   0.66666633  0.83333267  0.33373333
Direct configuration=     2
   0.00418189  0.00275667  0.11936847
   0.35598786  0.00302740  0.09779384
   0.00395998  0.35432140  0.09779600
   0.65260153  0.65098543  0.09778516
   0.32512415  0.32341554  0.10029294
   0.68354218  0.00310233  0.10027107
   0.00389078  0.68182320  0.10026361
   0.00012722  0.49997903  0.33374135
   0.16687824  0.33394928  0.33379917
   0.99999900  0.99999347  0.33363069
   0.16706337  0.83311929  0.33380204
   0.50003623  0.50016054  0.33374421
   0.66666613  0.33333784  0.33368434
   0.49985364  0.99987100  0.33374089
   0.66604847  0.83292492  0.33379889
Direct configuration=     3
   0.00416624  0.00270987  0.11990693
   0.35652223  0.00293200  0.09762508
   0.00411418  0.35497759  0.09762806
   0.65194922  0.65047631  0.09761454
   0.32676371  0.32524413  0.10029966
   0.68173540  0.00292440  0.10027359
   0.00404272  0.68017101  0.10026470
   0.00005644  0.49999045  0.33373691
   0.16676096  0.33360800  0.33376273
   0.99999918  0.99999690  0.33368750
   0.16684362  0.83323739  0.33376401
   0.50001581  0.50007150  0.33373819
   0.66666624  0.33333498  0.33371145
   0.49993428  0.99994221  0.33373671
   0.66639044  0.83315060  0.33376260
Direct configuration=     4
   0.00418097  0.00276827  0.11910144
   0.35693244  0.00304085  0.09789867
   0.00391972  0.35525182  0.09790015
   0.65169069  0.65003469  0.09789143
   0.32682954  0.32509497  0.10026154
   0.68186202  0.00311312  0.10024295
   0.00386749  0.68012465  0.10023607
  -0.00008509  0.50000646  0.33375509
   0.16662490  0.33316152  0.33380665
   0.00000000  0.00000280  0.33362389
   0.16654580  0.83338090  0.33381015
   0.49998920  0.49990662  0.33375857
   0.66666938  0.33333220  0.33366539
   0.50008935  0.00008539  0.33375447
   0.66684426  0.83346308  0.33380622
Direct configuration=     5
   0.00419699  0.00283181  0.11822503
   0.35737877  0.00315928  0.09819634
   0.00370814  0.35555018  0.09819619
   0.65140940  0.64955420  0.09819271
   0.32690115  0.32493267  0.10022006
   0.68199978  0.00331845  0.10020960
   0.00367682  0.68007422  0.10020492
  -0.00023907  0.50002389  0.33377486
   0.16647686  0.33267572  0.33385444
   0.00000090  0.00000923  0.33355467
   0.16622176  0.83353704  0.33386035
   0.49996025  0.49972721  0.33378075
   0.66667278  0.33332918  0.33361526
   0.50025808  0.00024118  0.33377379
   0.66733803  0.83380307  0.33385367
Direct configuration=     6
   0.00419954  0.00284289  0.11800704
   0.35748191  0.00317694  0.09826188
   0.00367370  0.35563127  0.09826138
   0.65133331  0.64944473  0.09825901
   0.32696039  0.32495799  0.10021809
   0.68197035  0.00334580  0.10020951
   0.00364884  0.68001928  0.10020529
  -0.00020787  0.50002237  0.33378037
   0.16649031  0.33274063  0.33386285
   0.00000216  0.00000882  0.33354455
   0.16627084  0.83352267  0.33386920
   0.49996502  0.49976094  0.33378669
   0.66667238  0.33332995  0.33360558
   0.50022742  0.00021119  0.33377920
   0.66727235  0.83375187  0.33386201
Direct configuration=     7
   0.00420719  0.00287612  0.11735308
   0.35779134  0.00322993  0.09845849
   0.00357039  0.35587452  0.09845694
   0.65110504  0.64911632  0.09845792
   0.32713811  0.32503396  0.10021217
   0.68188203  0.00342784  0.10020923
   0.00356491  0.67985445  0.10020640
  -0.00011424  0.50001782  0.33379690
   0.16653065  0.33293536  0.33388809
   0.00000594  0.00000762  0.33351420
   0.16641808  0.83347957  0.33389576
   0.49997934  0.49986212  0.33380450
   0.66667117  0.33333224  0.33357655
   0.50013543  0.00012123  0.33379542
   0.66707530  0.83359824  0.33388703
Direct configuration=     8
   0.00422249  0.00294257  0.11604516
   0.35841020  0.00333592  0.09885172
   0.00336377  0.35636102  0.09884805
   0.65064848  0.64845950  0.09885572
   0.32749355  0.32518588  0.10020032
   0.68170541  0.00359193  0.10020866
   0.00339704  0.67952481  0.10020860
   0.00007300  0.50000873  0.33382996
   0.16661132  0.33332481  0.33393857
   0.00001350  0.00000521  0.33345349
   0.16671256  0.83339337  0.33394887
   0.50000797  0.50006448  0.33384014
   0.66666874  0.33333682  0.33351847
   0.49995144 -0.00005869  0.33382787
   0.66668120  0.83329098  0.33393706
Direct configuration=     9
   0.00425308  0.00307547  0.11342932
   0.35964793  0.00354790  0.09963817
   0.00295052  0.35733402  0.09963029
   0.64973537  0.64714587  0.09965133
   0.32820442  0.32548973  0.10017662
   0.68135216  0.00392009  0.10020753
   0.00306129  0.67886552  0.10021302
   0.00044749  0.49999055  0.33389607
   0.16677266  0.33410371  0.33403952
   0.00002862  0.00000038  0.33333208
   0.16730153  0.83322098  0.33405509
   0.50006523  0.50046919  0.33391142
   0.66666388  0.33334599  0.33340232
   0.49958348 -0.00041854  0.33389277
   0.66589300  0.83267647  0.33403714
Direct configuration=    10
   0.00423210  0.00298430  0.11522377
   0.35879886  0.00340248  0.09909867
   0.00323401  0.35666655  0.09909368
   0.65036176  0.64804701  0.09910555
   0.32771677  0.32528129  0.10019287
   0.68159449  0.00369497  0.10020830
   0.00329161  0.67931779  0.10020999
   0.00019059  0.50000302  0.33385072
   0.16666198  0.33356939  0.33397027
   0.00001824  0.00000369  0.33341537
   0.16689750  0.83333924  0.33398222
   0.50002595  0.50019156  0.33386253
   0.66666721  0.33333970  0.33348200
   0.49983590 -0.00017169  0.33384825
   0.66643370  0.83309802  0.33396849
Direct configuration=    11
   0.00422934  0.00297602  0.11473997
   0.35877984  0.00336715  0.09917767
   0.00327963  0.35669215  0.09917247
   0.65034306  0.64806566  0.09918501
   0.32774953  0.32539473  0.10025521
   0.68148446  0.00360844  0.10027323
   0.00335677  0.67928588  0.10027532
   0.00011722  0.50001304  0.33386217
   0.16672130  0.33358220  0.33396612
   0.00001107  0.00000316  0.33344274
   0.16686594  0.83328973  0.33397783
   0.50000935  0.50011232  0.33387365
   0.66667381  0.33334057  0.33348740
   0.49990867 -0.00010416  0.33385958
   0.66643068  0.83314047  0.33396429
Direct configuration=    12
   0.00422109  0.00295118  0.11328857
   0.35872280  0.00326113  0.09941466
   0.00341649  0.35676896  0.09940885
   0.65028696  0.64812160  0.09942339
   0.32784781  0.32573504  0.10044223
   0.68115437  0.00334883  0.10046800
   0.00355225  0.67919017  0.10047133
  -0.00010291  0.50004310  0.33389654
   0.16689926  0.33362062  0.33395367
  -0.00001046  0.00000155  0.33352486
   0.16677124  0.83314120  0.33396465
   0.49995956  0.49987460  0.33390704
   0.66669361  0.33334317  0.33350361
   0.50012700  0.00009841  0.33389357
   0.66642160  0.83326779  0.33395171
Direct configuration=    13
   0.00420458  0.00290149  0.11038576
   0.35860872  0.00304910  0.09988864
   0.00369022  0.35692257  0.09988161
   0.65017477  0.64823348  0.09990016
   0.32804438  0.32641566  0.10081627
   0.68049420  0.00282960  0.10085753
   0.00394321  0.67899875  0.10086333
  -0.00054317  0.50010321  0.33396528
   0.16725518  0.33369748  0.33392877
  -0.00005353 -0.00000166  0.33368909
   0.16658184  0.83284415  0.33393830
   0.49985997  0.49939916  0.33397380
   0.66673320  0.33334836  0.33353602
   0.50056365  0.00050355  0.33396156
   0.66640345  0.83352244  0.33392655
Direct configuration=    14
   0.00420301  0.00289233  0.10983582
   0.35860223  0.00300825  0.09997033
   0.00375479  0.35696403  0.09996341
   0.65012693  0.64824509  0.09998188
   0.32804403  0.32650080  0.10089425
   0.68040864  0.00275004  0.10093732
   0.00401217  0.67898492  0.10094331
  -0.00041650  0.50006162  0.33397027
   0.16710143  0.33361992  0.33392711
  -0.00002963  0.00000284  0.33372525
   0.16662117  0.83297560  0.33393603
   0.49992630  0.49955429  0.33397804
   0.66671592  0.33334684  0.33355825
   0.50043264  0.00040104  0.33396646
   0.66645755  0.83345972  0.33392494
Direct configuration=    15
   0.00419835  0.00286517  0.10820475
   0.35858298  0.00288710  0.10021263
   0.00394631  0.35708701  0.10020604
   0.64998503  0.64827953  0.10022424
   0.32804301  0.32675334  0.10112551
   0.68015489  0.00251405  0.10117396
   0.00421669  0.67894388  0.10118054
  -0.00004081  0.49993828  0.33398507
   0.16664541  0.33338991  0.33392219
   0.00004124  0.00001618  0.33383250
   0.16673780  0.83336547  0.33392928
   0.50012304  0.50001439  0.33399060
   0.66666466  0.33334232  0.33362419
   0.50004407  0.00009702  0.33398099
   0.66661799  0.83327370  0.33392016
Direct configuration=    16
   0.00419814  0.00286390  0.10812841
   0.35858207  0.00288143  0.10022398
   0.00395528  0.35709276  0.10021740
   0.64997839  0.64828114  0.10023559
   0.32804296  0.32676516  0.10113633
   0.68014301  0.00250300  0.10118504
   0.00422627  0.67894196  0.10119165
  -0.00002323  0.49993250  0.33398576
   0.16662406  0.33337914  0.33392196
   0.00004455  0.00001681  0.33383752
   0.16674326  0.83338372  0.33392896
   0.50013225  0.50003593  0.33399119
   0.66666226  0.33334210  0.33362728
   0.50002589  0.00008279  0.33398167
   0.66662550  0.83326499  0.33391994
Direct configuration=    17
   0.00419886  0.00286360  0.10805954
   0.35865543  0.00289420  0.10023827
   0.00395207  0.35714547  0.10023218
   0.64990369  0.64821409  0.10024917
   0.32800428  0.32667986  0.10113990
   0.68022268  0.00256825  0.10118690
   0.00418737  0.67896281  0.10119313
   0.00002511  0.49997351  0.33397311
   0.16665746  0.33339361  0.33393230
   0.00002956  0.00001390  0.33383913
   0.16675098  0.83336808  0.33393896
   0.50007301  0.50005407  0.33397817
   0.66667922  0.33334545  0.33365232
   0.49999052  0.00001715  0.33396917
   0.66663041  0.83327328  0.33393040
Direct configuration=    18
   0.00420097  0.00286272  0.10785891
   0.35886913  0.00293139  0.10027992
   0.00394274  0.35729901  0.10027526
   0.64968608  0.64801877  0.10028875
   0.32789158  0.32643136  0.10115030
   0.68045475  0.00275832  0.10119233
   0.00407407  0.67902354  0.10119744
   0.00016595  0.50009298  0.33393627
   0.16675473  0.33343575  0.33396242
  -0.00001410  0.00000544  0.33384381
   0.16677349  0.83332254  0.33396811
   0.49990044  0.50010694  0.33394024
   0.66672864  0.33335520  0.33372526
   0.49988750 -0.00017405  0.33393277
   0.66664472  0.83329742  0.33396089
Direct configuration=    19
   0.00419301  0.00284346  0.10778837
   0.35898763  0.00295761  0.10029995
   0.00392539  0.35738362  0.10029617
   0.64957297  0.64790914  0.10030726
   0.32787832  0.32632550  0.10114522
   0.68056370  0.00287580  0.10118317
   0.00399555  0.67902833  0.10118743
   0.00010843  0.50005305  0.33392046
   0.16671900  0.33341995  0.33397593
   0.00001565  0.00001142  0.33384935
   0.16674094  0.83332393  0.33398109
   0.49997654  0.50006819  0.33392382
   0.66669732  0.33334997  0.33376256
   0.49996114 -0.00008118  0.33391725
   0.66662509  0.83329854  0.33397466
Direct configuration=    20
   0.00418669  0.00282818  0.10773238
   0.35908168  0.00297842  0.10031584
   0.00391162  0.35745078  0.10031276
   0.64948318  0.64782213  0.10032194
   0.32786780  0.32624147  0.10114118
   0.68065018  0.00296904  0.10117589
   0.00393322  0.67903214  0.10117948
   0.00006277  0.50002135  0.33390792
   0.16669064  0.33340741  0.33398666
   0.00003927  0.00001616  0.33385375
   0.16671511  0.83332504  0.33399140
   0.50003695  0.50003743  0.33391078
   0.66667246  0.33334581  0.33379217
   0.50001959 -0.00000746  0.33390493
   0.66660951  0.83329943  0.33398558
Direct configuration=    21
   0.00417551  0.00280336  0.10770976
   0.35909852  0.00298985  0.10032432
   0.00390065  0.35746031  0.10032170
   0.64947272  0.64780845  0.10032940
   0.32791082  0.32625342  0.10113402
   0.68064963  0.00300238  0.10116566
   0.00390420  0.67900311  0.10116861
   0.00002856  0.49999845  0.33391205
   0.16669832  0.33341233  0.33398524
   0.00002148  0.00001304  0.33386439
   0.16674710  0.83333997  0.33398986
   0.50003938  0.50003896  0.33391474
   0.66669061  0.33334837  0.33379935
   0.49999752  0.00000589  0.33390927
   0.66662563  0.83328945  0.33398431
Direct configuration=    22
   0.00416541  0.00278097  0.10768935
   0.35911372  0.00300016  0.10033196
   0.00389075  0.35746892  0.10032977
   0.64946328  0.64779611  0.10033613
   0.32794965  0.32626420  0.10112756
   0.68064914  0.00303247  0.10115642
   0.00387802  0.67897690  0.10115880
  -0.00000232  0.49997779  0.33391578
   0.16670526  0.33341677  0.33398395
   0.00000542  0.00001022  0.33387398
   0.16677597  0.83335345  0.33398847
   0.50004158  0.50004033  0.33391832
   0.66670699  0.33335067  0.33380582
   0.49997760  0.00001794  0.33391319
   0.66664019  0.83328044  0.33398315
Direct configuration=    23
   0.00415614  0.00275942  0.10766090
   0.35911262  0.00301543  0.10034032
   0.00388006  0.35745609  0.10033872
   0.64947333  0.64780168  0.10034312
   0.32798547  0.32627665  0.10111891
   0.68064504  0.00305965  0.10114347
   0.00385459  0.67894938  0.10114499
   0.00002366  0.49999300  0.33392446
   0.16670235  0.33341681  0.33398168
   0.00001496  0.00001187  0.33388803
   0.16676214  0.83334599  0.33398610
   0.50003763  0.50004480  0.33392686
   0.66669818  0.33334950  0.33381195
   0.49998432  0.00000345  0.33392210
   0.66663019  0.83328363  0.33398105
Direct configuration=    24
   0.00414274  0.00272830  0.10761983
   0.35911102  0.00303747  0.10035238
   0.00386463  0.35743756  0.10035165
   0.64948783  0.64780973  0.10035321
   0.32803718  0.32629463  0.10110642
   0.68063911  0.00309888  0.10112478
   0.00382077  0.67890966  0.10112506
   0.00006116  0.50001496  0.33393699
   0.16669814  0.33341687  0.33397839
   0.00002874  0.00001426  0.33390831
   0.16674217  0.83333521  0.33398267
   0.50003192  0.50005125  0.33393919
   0.66668545  0.33334780  0.33382081
   0.49999402 -0.00001748  0.33393497
   0.66661576  0.83328822  0.33397801
Direct configuration=    25
   0.00414699  0.00273445  0.10758280
   0.35909499  0.00305007  0.10035608
   0.00386552  0.35740657  0.10035598
   0.64950716  0.64783072  0.10035545
   0.32800961  0.32627440  0.10110147
   0.68065072  0.00310104  0.10111509
   0.00382448  0.67891692  0.10111439
   0.00005402  0.50001586  0.33394503
   0.16670108  0.33341105  0.33398190
   0.00002729  0.00001462  0.33391755
   0.16673710  0.83333458  0.33398619
   0.50002901  0.50004382  0.33394727
   0.66668824  0.33334891  0.33382856
   0.49999969 -0.00001201  0.33394321
   0.66662477  0.83329634  0.33398170
Direct configuration=    26
   0.00415637  0.00274803  0.10750095
   0.35905955  0.00307792  0.10036427
   0.00386748  0.35733807  0.10036555
   0.64954987  0.64787712  0.10036039
   0.32794869  0.32622970  0.10109055
   0.68067638  0.00310580  0.10109367
   0.00383267  0.67893296  0.10109081
   0.00003823  0.50001785  0.33396280
   0.16670757  0.33339818  0.33398965
   0.00002409  0.00001541  0.33393796
   0.16672590  0.83333319  0.33399397
   0.50002258  0.50002740  0.33396512
   0.66669440  0.33335137  0.33384570
   0.50001221  0.00000007  0.33396143
   0.66664468  0.83331427  0.33398984
Direct configuration=    27
   0.00415761  0.00274988  0.10746824
   0.35905864  0.00308059  0.10036444
   0.00386949  0.35733448  0.10036611
   0.64954917  0.64787831  0.10035959
   0.32794196  0.32623433  0.10108848
   0.68066966  0.00309664  0.10108818
   0.00384100  0.67893332  0.10108463
   0.00003860  0.50001283  0.33396811
   0.16670542  0.33340348  0.33399582
   0.00002422  0.00001537  0.33394241
   0.16673517  0.83333699  0.33400016
   0.50002824  0.50003377  0.33397051
   0.66669483  0.33335113  0.33385304
   0.50000638  0.00000016  0.33396686
   0.66664027  0.83330607  0.33399609
Direct configuration=    28
   0.00416135  0.00275542  0.10737011
   0.35905590  0.00308858  0.10036495
   0.00387550  0.35732371  0.10036778
   0.64954707  0.64788189  0.10035717
   0.32792180  0.32624821  0.10108229
   0.68064951  0.00306917  0.10107169
   0.00386599  0.67893439  0.10106609
   0.00003972  0.49999777  0.33398401
   0.16669900  0.33341936  0.33401432
   0.00002461  0.00001523  0.33395576
   0.16676296  0.83334842  0.33401875
   0.50004522  0.50005286  0.33398668
   0.66669614  0.33335042  0.33387506
   0.49998886  0.00000043  0.33398314
   0.66662705  0.83328146  0.33401486
Direct configuration=    29
   0.00416882  0.00276651  0.10717384
   0.35905041  0.00310458  0.10036597
   0.00388752  0.35730216  0.10037113
   0.64954286  0.64788905  0.10035234
   0.32788147  0.32627599  0.10106990
   0.68060919  0.00301423  0.10103872
   0.00391596  0.67893654  0.10102901
   0.00004197  0.49996766  0.33401583
   0.16668614  0.33345113  0.33405132
   0.00002540  0.00001496  0.33398246
   0.16681854  0.83337126  0.33405592
   0.50007918  0.50009106  0.33401903
   0.66669876  0.33334900  0.33391909
   0.49995383  0.00000096  0.33401570
   0.66660061  0.83323225  0.33405241
Direct configuration=    30
   0.00416774  0.00276449  0.10714568
   0.35905388  0.00310387  0.10036533
   0.00388827  0.35730724  0.10037072
   0.64953753  0.64788472  0.10035104
   0.32788360  0.32628475  0.10106846
   0.68060133  0.00300687  0.10103481
   0.00392088  0.67893532  0.10102461
   0.00004344  0.49997109  0.33402039
   0.16668806  0.33344997  0.33405694
   0.00002642  0.00001528  0.33398601
   0.16681457  0.83336905  0.33406157
   0.50007703  0.50008844  0.33402366
   0.66669853  0.33334934  0.33392505
   0.49995770  0.00000071  0.33402033
   0.66660170  0.83323619  0.33405809
Direct configuration=    31
   0.00416452  0.00275843  0.10706121
   0.35906431  0.00310176  0.10036338
   0.00389050  0.35732246  0.10036948
   0.64952154  0.64787173  0.10034715
   0.32788996  0.32631105  0.10106416
   0.68057773  0.00298478  0.10102305
   0.00393562  0.67893168  0.10101138
   0.00004784  0.49998139  0.33403405
   0.16669381  0.33344650  0.33407382
   0.00002945  0.00001624  0.33399664
   0.16680266  0.83336241  0.33407851
   0.50007058  0.50008058  0.33403755
   0.66669784  0.33335038  0.33394295
   0.49996934 -0.00000007  0.33403422
   0.66660496  0.83324800  0.33407512
Direct configuration=    32
   0.00415809  0.00274631  0.10689226
   0.35908517  0.00309754  0.10035949
   0.00389497  0.35735291  0.10036702
   0.64948956  0.64784575  0.10033937
   0.32790270  0.32636364  0.10105555
   0.68053053  0.00294061  0.10099954
   0.00396511  0.67892439  0.10098494
   0.00005664  0.50000198  0.33406137
   0.16670531  0.33343956  0.33410759
   0.00003552  0.00001817  0.33401791
   0.16677884  0.83334913  0.33411238
   0.50005768  0.50006486  0.33406533
   0.66669646  0.33335245  0.33397873
   0.49999260 -0.00000162  0.33406201
   0.66661149  0.83327164  0.33410918
Direct configuration=    33
   0.00414522  0.00272208  0.10655436
   0.35912688  0.00308910  0.10035170
   0.00390391  0.35741381  0.10036209
   0.64942561  0.64779379  0.10032380
   0.32792817  0.32646883  0.10103834
   0.68043613  0.00285227  0.10095252
   0.00402409  0.67890981  0.10093204
   0.00007424  0.50004317  0.33411603
   0.16672830  0.33342568  0.33417512
   0.00004766  0.00002202  0.33406044
   0.16673119  0.83332258  0.33418013
   0.50003188  0.50003342  0.33412091
   0.66669371  0.33335660  0.33405030
   0.50003914 -0.00000472  0.33411758
   0.66662454  0.83331890  0.33417731
Direct configuration=    34
   0.00411947  0.00267361  0.10587856
   0.35921031  0.00307221  0.10033613
   0.00392178  0.35753560  0.10035223
   0.64929770  0.64768988  0.10029267
   0.32797911  0.32667920  0.10100392
   0.68024734  0.00267558  0.10085849
   0.00414204  0.67888064  0.10082625
   0.00010945  0.50012555  0.33422533
   0.16677429  0.33339791  0.33431018
   0.00007195  0.00002971  0.33414552
   0.16663590  0.83326947  0.33431562
   0.49998028  0.49997054  0.33423205
   0.66668819  0.33336488  0.33419345
   0.50013220 -0.00001092  0.33422872
   0.66665065  0.83341344  0.33431356
Direct configuration=    35
   0.00413707  0.00270675  0.10634062
   0.35915327  0.00308376  0.10034677
   0.00390956  0.35745233  0.10035897
   0.64938515  0.64776093  0.10031395
   0.32794428  0.32653537  0.10102746
   0.68037642  0.00279639  0.10092278
   0.00406139  0.67890058  0.10089858
   0.00008538  0.50006923  0.33415060
   0.16674285  0.33341689  0.33421783
   0.00005534  0.00002445  0.33408735
   0.16670106  0.83330578  0.33422298
   0.50001556  0.50001354  0.33415606
   0.66669196  0.33335922  0.33409558
   0.50006857 -0.00000668  0.33415273
   0.66663280  0.83334880  0.33422040
Direct configuration=    36
   0.00413239  0.00269988  0.10623619
   0.35916454  0.00307788  0.10034344
   0.00390883  0.35747097  0.10035618
   0.64936981  0.64774710  0.10030901
   0.32794527  0.32654242  0.10102117
   0.68036995  0.00278615  0.10090947
   0.00406512  0.67890501  0.10088390
   0.00008199  0.50006469  0.33416945
   0.16674108  0.33341327  0.33423709
   0.00005341  0.00002545  0.33410305
   0.16670764  0.83331322  0.33424222
   0.50001806  0.50001772  0.33417515
   0.66669712  0.33336036  0.33411487
   0.50006291 -0.00000447  0.33417174
   0.66664254  0.83334770  0.33423973
Direct configuration=    37
   0.00411836  0.00267925  0.10592289
   0.35919834  0.00306024  0.10033344
   0.00390665  0.35752689  0.10034783
   0.64932378  0.64770562  0.10029419
   0.32794824  0.32656357  0.10100232
   0.68035053  0.00275543  0.10086954
   0.00407631  0.67891827  0.10083986
   0.00007182  0.50005107  0.33422600
   0.16673578  0.33340240  0.33429485
   0.00004763  0.00002843  0.33415014
   0.16672740  0.83333553  0.33429996
   0.50002556  0.50003028  0.33423242
   0.66671260  0.33336380  0.33417275
   0.50004591  0.00000214  0.33422877
   0.66667176  0.83334441  0.33429771
Direct configuration=    38
   0.00409028  0.00263799  0.10529631
   0.35926594  0.00302498  0.10031343
   0.00390229  0.35763873  0.10033113
   0.64923171  0.64762265  0.10026453
   0.32795418  0.32660589  0.10096461
   0.68031169  0.00269399  0.10078967
   0.00409869  0.67894481  0.10075178
   0.00005148  0.50002384  0.33433911
   0.16672518  0.33338067  0.33441037
   0.00003606  0.00003439  0.33424433
   0.16676691  0.83338015  0.33441544
   0.50004057  0.50005540  0.33434696
   0.66674355  0.33337067  0.33428852
   0.50001193  0.00001536  0.33434283
   0.66673019  0.83333782  0.33441367
Direct configuration=    39
   0.00409564  0.00265856  0.10509743
   0.35926265  0.00301795  0.10030758
   0.00389303  0.35763079  0.10032512
   0.64923282  0.64762170  0.10025870
   0.32791835  0.32652321  0.10094402
   0.68037171  0.00274401  0.10076517
   0.00405874  0.67895967  0.10072653
   0.00007189  0.50001930  0.33438144
   0.16671917  0.33341028  0.33444058
   0.00005439  0.00003516  0.33428585
   0.16677842  0.83337715  0.33444528
   0.50006783  0.50006877  0.33438946
   0.66672889  0.33336987  0.33431692
   0.50001955  0.00001566  0.33438496
   0.66668759  0.83331525  0.33444362
Direct configuration=    40
   0.00410646  0.00270007  0.10469600
   0.35925600  0.00300376  0.10029577
   0.00387435  0.35761478  0.10031300
   0.64923504  0.64761976  0.10024693
   0.32784602  0.32635632  0.10090247
   0.68049286  0.00284499  0.10071571
   0.00397811  0.67898967  0.10067558
   0.00011309  0.50001013  0.33446689
   0.16670702  0.33347004  0.33450154
   0.00009140  0.00003672  0.33436966
   0.16680164  0.83337109  0.33450552
   0.50012285  0.50009577  0.33447525
   0.66669930  0.33336826  0.33437427
   0.50003494  0.00001627  0.33447000
   0.66660159  0.83326970  0.33450407
Direct configuration=    41
   0.00411719  0.00273678  0.10446265
   0.35924336  0.00299607  0.10029126
   0.00385555  0.35759130  0.10030667
   0.64923959  0.64761643  0.10024670
   0.32786457  0.32627802  0.10086350
   0.68054669  0.00294796  0.10068605
   0.00389523  0.67894670  0.10064777
   0.00008807  0.50003294  0.33451778
   0.16674868  0.33345357  0.33453566
   0.00006991  0.00003812  0.33442740
   0.16679373  0.83335761  0.33453884
   0.50008037  0.50006946  0.33452588
   0.66672780  0.33337274  0.33440508
   0.50004130  0.00002067  0.33452003
   0.66664864  0.83330894  0.33453739
Direct configuration=    42
   0.00412333  0.00275782  0.10432886
   0.35923611  0.00299166  0.10028867
   0.00384477  0.35757783  0.10030304
   0.64924221  0.64761452  0.10024657
   0.32787520  0.32623313  0.10084116
   0.68057755  0.00300699  0.10066904
   0.00384771  0.67892207  0.10063183
   0.00007372  0.50004602  0.33454695
   0.16677257  0.33344413  0.33455521
   0.00005759  0.00003893  0.33446051
   0.16678919  0.83334988  0.33455795
   0.50005602  0.50005438  0.33455491
   0.66674413  0.33337531  0.33442275
   0.50004495  0.00002319  0.33454872
   0.66667561  0.83333144  0.33455650
Direct configuration=    43
   0.00411813  0.00275585  0.10420835
   0.35923188  0.00298242  0.10028906
   0.00383252  0.35758240  0.10030096
   0.64923622  0.64760098  0.10025321
   0.32797201  0.32627971  0.10080604
   0.68054010  0.00304917  0.10065289
   0.00380111  0.67884430  0.10061945
   0.00008255  0.50003971  0.33456770
   0.16674656  0.33341620  0.33457793
   0.00006559  0.00004221  0.33449189
   0.16677555  0.83337000  0.33458005
   0.50006894  0.50006251  0.33457503
   0.66674216  0.33337751  0.33444314
   0.50004581  0.00002462  0.33456851
   0.66670153  0.83333975  0.33457846
Direct configuration=    44
   0.00411473  0.00275456  0.10412961
   0.35922911  0.00297638  0.10028932
   0.00382452  0.35758539  0.10029960
   0.64923230  0.64759213  0.10025755
   0.32803526  0.32631014  0.10078309
   0.68051563  0.00307672  0.10064234
   0.00377066  0.67879349  0.10061136
   0.00008832  0.50003558  0.33458126
   0.16672957  0.33339795  0.33459277
   0.00007082  0.00004436  0.33451239
   0.16676664  0.83338315  0.33459449
   0.50007739  0.50006782  0.33458818
   0.66674088  0.33337894  0.33445646
   0.50004637  0.00002555  0.33458144
   0.66671846  0.83334517  0.33459282
Direct configuration=    45
   0.00410635  0.00273932  0.10407767
   0.35921855  0.00297258  0.10029076
   0.00382440  0.35758577  0.10029883
   0.64924380  0.64760105  0.10026486
   0.32805427  0.32633771  0.10075608
   0.68049382  0.00305902  0.10063619
   0.00377336  0.67878862  0.10060932
   0.00009814  0.50003427  0.33458406
   0.16674079  0.33343556  0.33460846
   0.00007625  0.00004306  0.33452421
   0.16678928  0.83337317  0.33460993
   0.50008684  0.50007730  0.33459030
   0.66673537  0.33337772  0.33447045
   0.50004247  0.00002118  0.33458349
   0.66667696  0.83332101  0.33460804
Direct configuration=    46
   0.00410209  0.00273156  0.10405125
   0.35921317  0.00297064  0.10029150
   0.00382434  0.35758596  0.10029844
   0.64924965  0.64760559  0.10026858
   0.32806395  0.32635174  0.10074234
   0.68048272  0.00305002  0.10063305
   0.00377474  0.67878614  0.10060829
   0.00010313  0.50003360  0.33458549
   0.16674651  0.33345470  0.33461645
   0.00007901  0.00004240  0.33453022
   0.16680080  0.83336810  0.33461779
   0.50009165  0.50008213  0.33459138
   0.66673258  0.33337709  0.33447758
   0.50004048  0.00001896  0.33458452
   0.66665585  0.83330872  0.33461579
Direct configuration=    47
   0.00409887  0.00272447  0.10400648
   0.35920401  0.00297270  0.10029215
   0.00383089  0.35758022  0.10029655
   0.64926239  0.64761984  0.10027631
   0.32802904  0.32635258  0.10071086
   0.68047720  0.00301104  0.10062955
   0.00380074  0.67881611  0.10061034
   0.00008891  0.50003871  0.33458687
   0.16675857  0.33344632  0.33463163
   0.00007110  0.00004302  0.33454130
   0.16679747  0.83336479  0.33463290
   0.50007982  0.50007081  0.33459192
   0.66674215  0.33337813  0.33449019
   0.50004532  0.00002587  0.33458509
   0.66667419  0.83332275  0.33463055
Direct configuration=    48
   0.00409728  0.00272097  0.10398442
   0.35919950  0.00297371  0.10029247
   0.00383412  0.35757739  0.10029562
   0.64926866  0.64762686  0.10028012
   0.32801183  0.32635299  0.10069534
   0.68047448  0.00299182  0.10062782
   0.00381355  0.67883088  0.10061135
   0.00008190  0.50004123  0.33458755
   0.16676451  0.33344219  0.33463910
   0.00006721  0.00004332  0.33454676
   0.16679583  0.83336315  0.33464034
   0.50007399  0.50006524  0.33459219
   0.66674686  0.33337864  0.33449640
   0.50004770  0.00002927  0.33458537
   0.66668323  0.83332966  0.33463782
Direct configuration=    49
   0.00409658  0.00271943  0.10397471
   0.35919751  0.00297415  0.10029261
   0.00383554  0.35757615  0.10029521
   0.64927142  0.64762995  0.10028179
   0.32800427  0.32635317  0.10068851
   0.68047328  0.00298337  0.10062706
   0.00381919  0.67883737  0.10061180
   0.00007882  0.50004234  0.33458785
   0.16676713  0.33344038  0.33464239
   0.00006549  0.00004346  0.33454916
   0.16679510  0.83336243  0.33464362
   0.50007143  0.50006279  0.33459230
   0.66674894  0.33337887  0.33449914
   0.50004875  0.00003077  0.33458550
   0.66668720  0.83333270  0.33464102
Direct configuration=    50
   0.00410214  0.00272929  0.10393161
   0.35920716  0.00298141  0.10029070
   0.00384306  0.35757788  0.10029086
   0.64925705  0.64762119  0.10028701
   0.32796399  0.32635157  0.10065655
   0.68046525  0.00295234  0.10062677
   0.00385041  0.67885451  0.10061782
   0.00009808  0.50003718  0.33459507
   0.16673416  0.33341705  0.33465215
   0.00008079  0.00004588  0.33456398
   0.16677634  0.83338056  0.33465364
   0.50009050  0.50007299  0.33459865