Lattice                                 
           1
     4.334457    2.502500    0.000000
    -4.334457    2.502500    0.000000
     0.000000    0.000000   15.000000
   B    C 
     8     8
Direct configuration=     1
   0.66888689  0.00000000  0.10000000
   0.33111211  0.00000000  0.10000000
   0.00000000  0.33111211  0.10000000
   0.00000000  0.66888689  0.10000000
   0.33111211  0.33111211  0.10000000
   0.66888689  0.66888689  0.10000000
   0.66666600  0.33333300  0.09922189
   0.33333300  0.66666600  0.10077811
   0.24999933  0.24999967  0.46906667
   0.41666633  0.08333267  0.46906667
   0.24999933  0.74999967  0.46906667
   0.41666633  0.58333267  0.46906667
   0.74999933  0.24999967  0.46906667
   0.91666633  0.08333267  0.46906667
   0.74999933  0.74999967  0.46906667
   0.91666633  0.58333267  0.46906667
Direct configuration=     2
   0.66993324 -0.00000015  0.10002623
   0.33006591 -0.00000017  0.10002631
   0.00000015  0.33006576  0.10002623
   0.00000017  0.66993309  0.10002631
   0.33006558  0.33006553  0.10002632
   0.66993347  0.66993342  0.10002632
   0.66666607  0.33333293  0.09925151
   0.33333255  0.66666645  0.10080790
   0.24999513  0.24999495  0.46903980
   0.41666302  0.08333419  0.46903925
   0.24999892  0.75000008  0.46903885
   0.41666707  0.58333193  0.46903949
   0.75000219  0.24999681  0.46903962
   0.91666735  0.08333165  0.46904016
   0.75000405  0.75000387  0.46903980
   0.91666481  0.58333598  0.46903925
Direct configuration=     3
   0.66945564 -0.00000008  0.10001426
   0.33054344 -0.00000009  0.10001430
   0.00000008  0.33054336  0.10001426
   0.00000009  0.66945556  0.10001430
   0.33054326  0.33054323  0.10001431
   0.66945577  0.66945574  0.10001431
   0.66666604  0.33333296  0.09923799
   0.33333276  0.66666624  0.10079430
   0.24999705  0.24999711  0.46905206
   0.41666453  0.08333349  0.46905176
   0.24999911  0.74999989  0.46905155
   0.41666673  0.58333227  0.46905189
   0.75000089  0.24999811  0.46905197
   0.91666689  0.08333211  0.46905226
   0.75000189  0.75000195  0.46905206
   0.91666551  0.58333447  0.46905176
Direct configuration=     4
   0.66945576 -0.00000011  0.10003855
   0.33054347 -0.00000006  0.10003866
   0.00000011  0.33054324  0.10003855
   0.00000006  0.66945553  0.10003866
   0.33054332  0.33054327  0.10003868
   0.66945573  0.66945568  0.10003868
   0.66666601  0.33333299  0.09926708
   0.33333273  0.66666627  0.10081945
   0.24999997  0.25000114  0.46902722
   0.41666739  0.08333184  0.46902653
   0.24999900  0.75000000  0.46902606
   0.41666644  0.58333256  0.46902683
   0.74999819  0.25000081  0.46902700
   0.91666646  0.08333254  0.46902765
   0.74999786  0.74999903  0.46902722
   0.91666716  0.58333161  0.46902653
Direct configuration=     5
   0.66945613 -0.00000019  0.10011143
   0.33054356  0.00000002  0.10011173
   0.00000019  0.33054287  0.10011143
  -0.00000002  0.66945544  0.10011173
   0.33054350  0.33054338  0.10011178
   0.66945562  0.66945550  0.10011178
   0.66666592  0.33333308  0.09935434
   0.33333267  0.66666633  0.10089488
   0.25000872  0.25001326  0.46895268
   0.41667597  0.08332686  0.46895085
   0.24999869  0.75000031  0.46894960
   0.41666555  0.58333345  0.46895163
   0.74999011  0.25000889  0.46895210
   0.91666518  0.08333382  0.46895383
   0.74998574  0.74999028  0.46895268
   0.91667214  0.58332303  0.46895085
Direct configuration=     6
   0.66945687 -0.00000036  0.10025720
   0.33054375  0.00000018  0.10025788
   0.00000036  0.33054213  0.10025720
  -0.00000018  0.66945525  0.10025788
   0.33054385  0.33054359  0.10025800
   0.66945541  0.66945515  0.10025800
   0.66666575  0.33333325  0.09952886
   0.33333253  0.66666647  0.10104573
   0.25002623  0.25003750  0.46880361
   0.41669312  0.08331691  0.46879947
   0.24999807  0.75000093  0.46879668
   0.41666377  0.58333523  0.46880123
   0.74997394  0.25002506  0.46880231
   0.91666261  0.08333639  0.46880619
   0.74996150  0.74997277  0.46880361
   0.91668209  0.58330588  0.46879947
Direct configuration=     7
   0.66945834 -0.00000069  0.10054873
   0.33054414  0.00000051  0.10055018
   0.00000069  0.33054066  0.10054873
  -0.00000051  0.66945486  0.10055018
   0.33054457  0.33054403  0.10055044
   0.66945497  0.66945443  0.10055044
   0.66666540  0.33333360  0.09987790
   0.33333226  0.66666674  0.10134745
   0.25006126  0.25008598  0.46850548
   0.41672742  0.08329700  0.46849672
   0.24999683  0.75000217  0.46849084
   0.41666022  0.58333878  0.46850043
   0.74994160  0.25005740  0.46850272
   0.91665748  0.08334152  0.46851091
   0.74991302  0.74993774  0.46850548
   0.91670200  0.58327158  0.46849672
Direct configuration=     8
   0.66946128 -0.00000135  0.10113178
   0.33054490  0.00000117  0.10113479
   0.00000135  0.33053772  0.10113178
  -0.00000117  0.66945410  0.10113479
   0.33054600  0.33054490  0.10113530
   0.66945410  0.66945300  0.10113530
   0.66666470  0.33333430  0.10057598
   0.33333171  0.66666729  0.10195088
   0.25013131  0.25018294  0.46790920
   0.41679603  0.08325719  0.46789122
   0.24999435  0.75000465  0.46787916
   0.41665311  0.58334589  0.46789884
   0.74987692  0.25012208  0.46790353
   0.91664721  0.08335179  0.46792035
   0.74981606  0.74986769  0.46790920
   0.91674181  0.58320297  0.46789122
Direct configuration=     9
   0.66946715 -0.00000267  0.10229790
   0.33054644  0.00000248  0.10230399
   0.00000267  0.33053185  0.10229790
  -0.00000248  0.66945256  0.10230399
   0.33054886  0.33054664  0.10230504
   0.66945236  0.66945014  0.10230504
   0.66666329  0.33333571  0.10197215
   0.33333061  0.66666839  0.10315775
   0.25027142  0.25037685  0.46671665
   0.41693324  0.08317756  0.46668022
   0.24998938  0.75000962  0.46665580
   0.41663890  0.58336010  0.46669565
   0.74974756  0.25025144  0.46670516
   0.91662667  0.08337233  0.46673923
   0.74962215  0.74972758  0.46671665
   0.91682144  0.58306576  0.46668022
Direct configuration=    10
   0.66947891 -0.00000532  0.10463013
   0.33054950  0.00000510  0.10464240
   0.00000532  0.33052009  0.10463013
  -0.00000510  0.66944950  0.10464240
   0.33055457  0.33055012  0.10464452
   0.66944888  0.66944443  0.10464452
   0.66666049  0.33333851  0.10476448
   0.33332843  0.66667057  0.10557148
   0.25055163  0.25076468  0.46433154
   0.41720767  0.08301831  0.46425821
   0.24997945  0.75001955  0.46420909
   0.41661047  0.58338853  0.46428928
   0.74948884  0.25051016  0.46430843
   0.91658560  0.08341340  0.46437699
   0.74923432  0.74944737  0.46433154
   0.91698069  0.58279133  0.46425821
Direct configuration=    11
   0.66950243 -0.00001061  0.10929459
   0.33055563  0.00001035  0.10931921
   0.00001061  0.33049657  0.10929459
  -0.00001035  0.66944337  0.10931921
   0.33056601  0.33055707  0.10932347
   0.66944193  0.66943299  0.10932347
   0.66665488  0.33334412  0.11034914
   0.33332405  0.66667495  0.11039894
   0.25111205  0.25154034  0.45956133
   0.41775653  0.08269982  0.45941420
   0.24995960  0.75003940  0.45931565
   0.41655362  0.58344538  0.45947652
   0.74897139  0.25102761  0.45951495
   0.91650346  0.08349554  0.45965251
   0.74845866  0.74888695  0.45956133
   0.91729918  0.58224247  0.45941420
Direct configuration=    12
   0.66950243 -0.00001061  0.10929579
   0.33055563  0.00001035  0.10932042
   0.00001061  0.33049657  0.10929579
  -0.00001035  0.66944337  0.10932042
   0.33056601  0.33055707  0.10932468
   0.66944193  0.66943299  0.10932468
   0.66665487  0.33334413  0.11035058
   0.33332405  0.66667495  0.11040018
   0.25111209  0.25154038  0.45956010
   0.41775655  0.08269981  0.45941295
   0.24995961  0.75003939  0.45931439
   0.41655361  0.58344539  0.45947528
   0.74897137  0.25102763  0.45951371
   0.91650344  0.08349556  0.45965129
   0.74845862  0.74888691  0.45956010
   0.91729919  0.58224245  0.45941295
Direct configuration=    13
   0.66950244 -0.00001062  0.10929942
   0.33055563  0.00001035  0.10932405
   0.00001062  0.33049656  0.10929942
  -0.00001035  0.66944337  0.10932405
   0.33056602  0.33055708  0.10932831
   0.66944192  0.66943298  0.10932831
   0.66665487  0.33334413  0.11035491
   0.33332404  0.66667496  0.11040392
   0.25111221  0.25154049  0.45955640
   0.41775662  0.08269979  0.45940919
   0.24995963  0.75003937  0.45931060
   0.41655356  0.58344544  0.45947155
   0.74897132  0.25102768  0.45950999
   0.91650339  0.08349561  0.45964761
   0.74845851  0.74888679  0.45955640
   0.91729921  0.58224238  0.45940919
Direct configuration=    14
   0.66950246 -0.00001062  0.10930666
   0.33055565  0.00001035  0.10933131
   0.00001062  0.33049654  0.10930666
  -0.00001035  0.66944335  0.10933131
   0.33056604  0.33055709  0.10933558
   0.66944191  0.66943296  0.10933558
   0.66665487  0.33334413  0.11036356
   0.33332404  0.66667496  0.11041140
   0.25111246  0.25154070  0.45954899
   0.41775674  0.08269974  0.45940168
   0.24995969  0.75003931  0.45930303
   0.41655348  0.58344552  0.45946408
   0.74897120  0.25102780  0.45950255
   0.91650329  0.08349571  0.45964027
   0.74845830  0.74888654  0.45954899
   0.91729926  0.58224226  0.45940168
Direct configuration=    15
   0.66950251 -0.00001064  0.10932114
   0.33055567  0.00001036  0.10934584
   0.00001064  0.33049649  0.10932114
  -0.00001036  0.66944333  0.10934584
   0.33056607  0.33055711  0.10935010
   0.66944189  0.66943293  0.10935010
   0.66665486  0.33334414  0.11038086
   0.33332403  0.66667497  0.11042635
   0.25111296  0.25154113  0.45953418
   0.41775699  0.08269966  0.45938667
   0.24995981  0.75003919  0.45928787
   0.41655331  0.58344569  0.45944915
   0.74897098  0.25102802  0.45948768
   0.91650310  0.08349590  0.45962558
   0.74845787  0.74888604  0.45953418
   0.91729934  0.58224201  0.45938667
Direct configuration=    16
   0.66950259 -0.00001067  0.10935011
   0.33055572  0.00001037  0.10937488
   0.00001067  0.33049641  0.10935011
  -0.00001037  0.66944328  0.10937488
   0.33056614  0.33055715  0.10937916
   0.66944185  0.66943286  0.10937916
   0.66665485  0.33334415  0.11041546
   0.33332400  0.66667500  0.11045626
   0.25111395  0.25154199  0.45950455
   0.41775750  0.08269948  0.45935663
   0.24996004  0.75003896  0.45925756
   0.41655297  0.58344603  0.45941928
   0.74897052  0.25102848  0.45945792
   0.91650270  0.08349630  0.45959621
   0.74845701  0.74888505  0.45950455
   0.91729952  0.58224150  0.45935663
Direct configuration=    17
   0.66950277 -0.00001073  0.10940804
   0.33055582  0.00001039  0.10943296
   0.00001073  0.33049623  0.10940804
  -0.00001039  0.66944318  0.10943296
   0.33056628  0.33055723  0.10943727
   0.66944177  0.66943272  0.10943727
   0.66665483  0.33334417  0.11048466
   0.33332395  0.66667505  0.11051607
   0.25111593  0.25154372  0.45944529
   0.41775851  0.08269913  0.45929656
   0.24996050  0.75003850  0.45919695
   0.41655229  0.58344671  0.45935955
   0.74896961  0.25102939  0.45939841
   0.91650192  0.08349708  0.45953746
   0.74845528  0.74888307  0.45944529
   0.91729987  0.58224049  0.45929656
Direct configuration=    18
   0.66950311 -0.00001086  0.10952390
   0.33055601  0.00001043  0.10954912
   0.00001086  0.33049589  0.10952390
  -0.00001043  0.66944299  0.10954912
   0.33056657  0.33055739  0.10955348
   0.66944161  0.66943243  0.10955348
   0.66665478  0.33334422  0.11062307
   0.33332386  0.66667514  0.11063569
   0.25111989  0.25154716  0.45932679
   0.41776053  0.08269843  0.45917642
   0.24996143  0.75003757  0.45907572
   0.41655092  0.58344808  0.45924009
   0.74896779  0.25103121  0.45927938
   0.91650034  0.08349866  0.45941996
   0.74845184  0.74887911  0.45932679
   0.91730057  0.58223847  0.45917642
Direct configuration=    19
   0.66950381 -0.00001111  0.10975563
   0.33055641  0.00001052  0.10978145
   0.00001111  0.33049519  0.10975563
  -0.00001052  0.66944259  0.10978145
   0.33056713  0.33055772  0.10978591
   0.66944128  0.66943187  0.10978591
   0.66665469  0.33334431  0.11089988
   0.33332366  0.66667534  0.11087494
   0.25112782  0.25155406  0.45908977
   0.41776456  0.08269704  0.45893613
   0.24996328  0.75003572  0.45883326
   0.41654819  0.58345081  0.45900116
   0.74896414  0.25103486  0.45904133
   0.91649719  0.08350181  0.45918496
   0.74844494  0.74887118  0.45908977
   0.91730196  0.58223444  0.45893613
Direct configuration=    20
   0.66950519 -0.00001161  0.11021909
   0.33055719  0.00001070  0.11024611
   0.00001161  0.33049381  0.11021909
  -0.00001070  0.66944181  0.11024611
   0.33056826  0.33055837  0.11025078
   0.66944063  0.66943074  0.11025078
   0.66665451  0.33334449  0.11145350
   0.33332328  0.66667572  0.11135344
   0.25114367  0.25156784  0.45861573
   0.41777263  0.08269424  0.45845557
   0.24996699  0.75003201  0.45834834
   0.41654273  0.58345627  0.45852331
   0.74895686  0.25104214  0.45856522
   0.91649089  0.08350811  0.45871497
   0.74843116  0.74885533  0.45861573
   0.91730476  0.58222637  0.45845557
Direct configuration=    21
   0.66950797 -0.00001262  0.11114600
   0.33055876  0.00001105  0.11117543
   0.00001262  0.33049103  0.11114600
  -0.00001105  0.66944024  0.11117543
   0.33057051  0.33055968  0.11118050
   0.66943932  0.66942849  0.11118050
   0.66665414  0.33334486  0.11256074
   0.33332251  0.66667649  0.11231044
   0.25117538  0.25159541  0.45766766
   0.41778877  0.08268865  0.45749443
   0.24997441  0.75002459  0.45737850
   0.41653182  0.58346718  0.45756761
   0.74894228  0.25105672  0.45761301
   0.91647829  0.08352071  0.45777498
   0.74840359  0.74882362  0.45766766
   0.91731035  0.58221023  0.45749443
Direct configuration=    22
   0.66951352 -0.00001462  0.11299983
   0.33056190  0.00001176  0.11303406
   0.00001462  0.33048548  0.11299983
  -0.00001176  0.66943710  0.11303406
   0.33057502  0.33056228  0.11303995
   0.66943672  0.66942398  0.11303995
   0.66665341  0.33334559  0.11477523
   0.33332096  0.66667804  0.11422443
   0.25123879  0.25165056  0.45577152
   0.41782106  0.08267747  0.45557216
   0.24998924  0.75000976  0.45543882
   0.41650999  0.58348901  0.45565621
   0.74891314  0.25108586  0.45570858
   0.91645309  0.08354591  0.45589500
   0.74834844  0.74876021  0.45577152
   0.91732153  0.58217794  0.45557216
Direct configuration=    23
   0.66952461 -0.00001864  0.11670748
   0.33056818  0.00001317  0.11675133
   0.00001864  0.33047439  0.11670748
  -0.00001317  0.66943082  0.11675133
   0.33058405  0.33056750  0.11675885
   0.66943150  0.66941495  0.11675885
   0.66665194  0.33334706  0.11920420
   0.33331787  0.66668113  0.11805242
   0.25136561  0.25176084  0.45197924
   0.41788562  0.08265511  0.45172763
   0.25001890  0.74998010  0.45155947
   0.41646632  0.58353268  0.45183341
   0.74885484  0.25114416  0.45189974
   0.91640270  0.08359630  0.45213504
   0.74823816  0.74863339  0.45197924
   0.91734389  0.58211338  0.45172763
Direct configuration=    24
   0.66954681 -0.00002667  0.12412279
   0.33058073  0.00001600  0.12418587
   0.00002667  0.33045219  0.12412279
  -0.00001600  0.66941827  0.12418587
   0.33060209  0.33057793  0.12419665
   0.66942107  0.66939691  0.12419665
   0.66664901  0.33334999  0.12806215
   0.33331169  0.66668731  0.12570839
   0.25161926  0.25198141  0.44439468
   0.41801475  0.08261038  0.44403855
   0.25007822  0.74992078  0.44380076
   0.41637900  0.58362000  0.44418780
   0.74873825  0.25126075  0.44428204
   0.91630190  0.08369710  0.44461512
   0.74801759  0.74837974  0.44439468
   0.91738862  0.58198425  0.44403855
Direct configuration=    25
   0.66959120 -0.00004273  0.13895340
   0.33060584  0.00002165  0.13905494
   0.00004273  0.33040780  0.13895340
  -0.00002165  0.66939316  0.13905494
   0.33063817  0.33059880  0.13907224
   0.66940020  0.66936083  0.13907224
   0.66664315  0.33335585  0.14577803
   0.33329933  0.66669967  0.14102033
   0.25212656  0.25242255  0.42922556
   0.41827302  0.08252094  0.42866041
   0.25019686  0.74980214  0.42828334
   0.41620434  0.58379466  0.42889659
   0.74850508  0.25149392  0.42904664
   0.91610031  0.08389869  0.42957528
   0.74757645  0.74787244  0.42922556
   0.91747806  0.58172598  0.42866041
Direct configuration=    26
   0.66967997 -0.00007486  0.16861463
   0.33065606  0.00003295  0.16879309
   0.00007486  0.33031903  0.16861463
  -0.00003295  0.66934294  0.16879309
   0.33071035  0.33064053  0.16882344
   0.66935847  0.66928865  0.16882344
   0.66663142  0.33336758  0.18120981
   0.33327461  0.66672439  0.17164422
   0.25314116  0.25330482  0.39888732
   0.41878955  0.08234204  0.39790411
   0.25043415  0.74956485  0.39724849
   0.41585503  0.58414397  0.39831417
   0.74803872  0.25196028  0.39857585
   0.91569713  0.08430187  0.39949560
   0.74669418  0.74685784  0.39888732
   0.91765696  0.58120945  0.39790411
Direct configuration=    27
   0.66962523 -0.00005505  0.15032632
   0.33062510  0.00002598  0.15045735
   0.00005505  0.33037377  0.15032632
  -0.00002598  0.66937390  0.15045735
   0.33066585  0.33061480  0.15047966
   0.66938420  0.66933315  0.15047966
   0.66663865  0.33336035  0.15936354
   0.33328986  0.66670914  0.15276236
   0.25251559  0.25276084  0.41759306
   0.41847107  0.08245234  0.41686761
   0.25028785  0.74971115  0.41638374
   0.41607041  0.58392859  0.41717047
   0.74832627  0.25167273  0.41736332
   0.91594572  0.08405328  0.41804192
   0.74723816  0.74748341  0.41759306
   0.91754666  0.58152793  0.41686761
Direct configuration=    28
   0.66965260 -0.00006495  0.15947048
   0.33064058  0.00002947  0.15962522
   0.00006495  0.33034640  0.15947048
  -0.00002947  0.66935842  0.15962522
   0.33068810  0.33062766  0.15965155
   0.66937134  0.66931090  0.15965155
   0.66663504  0.33336396  0.17028667
   0.33328224  0.66671676  0.16220329
   0.25282837  0.25303283  0.40824019
   0.41863031  0.08239719  0.40738586
   0.25036100  0.74963800  0.40681611
   0.41596272  0.58403628  0.40774232
   0.74818249  0.25181651  0.40796959
   0.91582143  0.08417757  0.40876876
   0.74696617  0.74717063  0.40824019
   0.91760181  0.58136869  0.40738586
Direct configuration=    29
   0.66966629 -0.00006990  0.16404255
   0.33064832  0.00003121  0.16420916
   0.00006990  0.33033271  0.16404255
  -0.00003121  0.66935068  0.16420916
   0.33069922  0.33063410  0.16423749
   0.66936490  0.66929978  0.16423749
   0.66663323  0.33336577  0.17574824
   0.33327842  0.66672058  0.16692376
   0.25298476  0.25316883  0.40356376
   0.41870993  0.08236962  0.40264499
   0.25039757  0.74960143  0.40203230
   0.41590888  0.58409012  0.40302825
   0.74811061  0.25188839  0.40327272
   0.91575928  0.08423972  0.40413218
   0.74683017  0.74701424  0.40356376
   0.91762938  0.58128907  0.40264499
