Lattice                                 
           1
     4.363902    2.519500    0.000000
    -4.363902    2.519500    0.000000
     0.000000    0.000000   15.000000
   B    C 
     2    14
Direct configuration=     1
   0.33833034  0.66916432  0.10000000
   0.67165522  0.33584146  0.10000000
   0.16373946  0.31999962  0.10000000
   0.32250218  0.16126397  0.10000000
   0.16376430  0.84376384  0.10000000
   0.84623863  0.16123684  0.10000000
   0.68749850  0.84373000  0.10000000
   0.84626736  0.68499594  0.10000000
   0.16666600  0.33333300  0.32880000
   0.33333300  0.16666600  0.32880000
   0.16666600  0.83333300  0.32880000
   0.33333300  0.66666600  0.32880000
   0.66666600  0.33333300  0.32880000
   0.83333300  0.16666600  0.32880000
   0.66666600  0.83333300  0.32880000
   0.83333300  0.66666600  0.32880000
Direct configuration=     2
   0.33832832  0.66916299  0.10014651
   0.67167627  0.33581243  0.10014651
   0.16710776  0.32674636  0.09994702
   0.32924225  0.16463017  0.09994666
   0.16713838  0.84037956  0.09994703
   0.84285629  0.16460787  0.09994740
   0.68077597  0.84038822  0.09994759
   0.84288118  0.67827350  0.09994739
   0.16636092  0.33271921  0.32887095
   0.33271864  0.16635990  0.32887155
   0.16636096  0.83363962  0.32887095
   0.33332700  0.66666409  0.32860119
   0.66666154  0.33332976  0.32860120
   0.83363927  0.16636178  0.32886959
   0.66727800  0.83363797  0.32886885
   0.83363923  0.66727858  0.32886961
Direct configuration=     3
   0.33832980  0.66916396  0.10003951
   0.67166089  0.33583363  0.10003951
   0.16464785  0.32181914  0.09998571
   0.32431990  0.16217179  0.09998562
   0.16467425  0.84285114  0.09998572
   0.84532646  0.16214597  0.09998581
   0.68568552  0.84282876  0.09998586
   0.84535415  0.68318298  0.09998581
   0.16658372  0.33316747  0.32881913
   0.33316731  0.16658345  0.32881930
   0.16658374  0.83341569  0.32881913
   0.33333138  0.66666548  0.32874638
   0.66666480  0.33333213  0.32874639
   0.83341560  0.16658396  0.32881877
   0.66683105  0.83341525  0.32881857
   0.83341559  0.66683120  0.32881877
Direct configuration=     4
   0.33833486  0.66916456  0.10013912
   0.67166482  0.33583044  0.10013910
   0.16464186  0.32180587  0.09994970
   0.32430876  0.16216043  0.09994936
   0.16466009  0.84285396  0.09994970
   0.84534381  0.16214779  0.09995016
   0.68569374  0.84284291  0.09995030
   0.84536006  0.68319592  0.09995016
   0.16654770  0.33309719  0.32886496
   0.33309640  0.16654789  0.32886554
   0.16654769  0.83345020  0.32886496
   0.33333011  0.66666474  0.32861834
   0.66666342  0.33333154  0.32861834
   0.83344950  0.16654851  0.32886366
   0.66689964  0.83344966  0.32886294
   0.83344952  0.66690039  0.32886367
Direct configuration=     5
   0.33833664  0.66916478  0.10017413
   0.67166620  0.33582931  0.10017411
   0.16463976  0.32180121  0.09993703
   0.32430485  0.16215644  0.09993662
   0.16465512  0.84285495  0.09993704
   0.84534992  0.16214843  0.09993763
   0.68569663  0.84284788  0.09993779
   0.84536214  0.68320047  0.09993763
   0.16653503  0.33307248  0.32888107
   0.33307148  0.16653539  0.32888179
   0.16653502  0.83346233  0.32888107
   0.33332967  0.66666448  0.32857333
   0.66666294  0.33333133  0.32857333
   0.83346142  0.16653606  0.32887945
   0.66692375  0.83346175  0.32887854
   0.83346145  0.66692471  0.32887945
Direct configuration=     6
   0.33831977  0.66916568  0.10023993
   0.67166755  0.33583697  0.10023991
   0.16468015  0.32181686  0.09991268
   0.32430865  0.16216323  0.09991194
   0.16467406  0.84284722  0.09991268
   0.84532953  0.16214391  0.09991376
   0.68571569  0.84284209  0.09991406
   0.84532825  0.68319356  0.09991371
   0.16662555  0.33325551  0.32889487
   0.33325380  0.16662699  0.32889592
   0.16662557  0.83336903  0.32889487
   0.33332841  0.66666430  0.32853962
   0.66666209  0.33333056  0.32853962
   0.83336734  0.16662740  0.32889256
   0.66673827  0.83336863  0.32889131
   0.83336731  0.66674006  0.32889256
Direct configuration=     7
   0.33832970  0.66916515  0.10020119
   0.67166676  0.33583246  0.10020118
   0.16465637  0.32180764  0.09992702
   0.32430641  0.16215923  0.09992647
   0.16466291  0.84285177  0.09992702
   0.84534153  0.16214657  0.09992781
   0.68570447  0.84284550  0.09992803
   0.84534820  0.68319763  0.09992779
   0.16657226  0.33314776  0.32888674
   0.33314646  0.16657306  0.32888760
   0.16657226  0.83342395  0.32888674
   0.33332915  0.66666441  0.32855947
   0.66666259  0.33333101  0.32855946
   0.83342273  0.16657362  0.32888484
   0.66684747  0.83342345  0.32888379
   0.83342273  0.66684877  0.32888484
Direct configuration=     8
   0.33832997  0.66916514  0.10020016
   0.67166674  0.33583234  0.10020014
   0.16465574  0.32180740  0.09992740
   0.32430635  0.16215912  0.09992685
   0.16466261  0.84285189  0.09992741
   0.84534185  0.16214664  0.09992818
   0.68570417  0.84284559  0.09992840
   0.84534874  0.68319774  0.09992817
   0.16657084  0.33314489  0.32888653
   0.33314361  0.16657163  0.32888738
   0.16657084  0.83342541  0.32888653
   0.33332917  0.66666441  0.32855999
   0.66666260  0.33333103  0.32855999
   0.83342420  0.16657219  0.32888464
   0.66685037  0.83342491  0.32888359
   0.83342421  0.66685166  0.32888463
Direct configuration=     9
   0.33834040  0.66916788  0.10022145
   0.67166018  0.33583352  0.10022144
   0.16463906  0.32180553  0.09991864
   0.32431859  0.16215349  0.09991789
   0.16464551  0.84284851  0.09991863
   0.84536357  0.16215612  0.09991976
   0.68568756  0.84284838  0.09992016
   0.84537041  0.68319691  0.09991975
   0.16656980  0.33314474  0.32888359
   0.33314287  0.16657115  0.32888459
   0.16656981  0.83342478  0.32888359
   0.33332803  0.66666374  0.32857373
   0.66666135  0.33333054  0.32857372
   0.83342298  0.16657170  0.32888141
   0.66684888  0.83342430  0.32888023
   0.83342297  0.66685069  0.32888141
Direct configuration=    10
   0.33833990  0.66916775  0.10022042
   0.67166050  0.33583346  0.10022041
   0.16463987  0.32180562  0.09991906
   0.32431800  0.16215377  0.09991832
   0.16464634  0.84284868  0.09991906
   0.84536252  0.16215567  0.09992017
   0.68568836  0.84284825  0.09992056
   0.84536937  0.68319695  0.09992016
   0.16656985  0.33314475  0.32888373
   0.33314291  0.16657117  0.32888473
   0.16656986  0.83342481  0.32888373
   0.33332809  0.66666377  0.32857306
   0.66666141  0.33333056  0.32857306
   0.83342304  0.16657172  0.32888157
   0.66684895  0.83342433  0.32888039
   0.83342303  0.66685074  0.32888157
Direct configuration=    11
   0.33833666  0.66916781  0.10023078
   0.67166479  0.33583376  0.10023077
   0.16465013  0.32180643  0.09991457
   0.32431308  0.16215430  0.09991371
   0.16465338  0.84284965  0.09991457
   0.84535660  0.16215463  0.09991590
   0.68569574  0.84284895  0.09991639
   0.84536028  0.68319746  0.09991589
   0.16656752  0.33314118  0.32888226
   0.33313898  0.16656923  0.32888333
   0.16656753  0.83342605  0.32888226
   0.33332736  0.66666342  0.32858049
   0.66666068  0.33333020  0.32858049
   0.83342392  0.16656978  0.32887995
   0.66685143  0.83342557  0.32887870
   0.83342392  0.66685359  0.32887995
Direct configuration=    12
   0.33833474  0.66916785  0.10023695
   0.67166734  0.33583394  0.10023694
   0.16465624  0.32180691  0.09991190
   0.32431014  0.16215461  0.09991096
   0.16465758  0.84285022  0.09991190
   0.84535307  0.16215402  0.09991336
   0.68570013  0.84284937  0.09991391
   0.84535486  0.68319777  0.09991335
   0.16656614  0.33313906  0.32888138
   0.33313664  0.16656806  0.32888250
   0.16656615  0.83342679  0.32888138
   0.33332692  0.66666321  0.32858491
   0.66666025  0.33332998  0.32858491
   0.83342445  0.16656862  0.32887898
   0.66685290  0.83342631  0.32887770
   0.83342444  0.66685529  0.32887898
Direct configuration=    13
   0.33833481  0.66916785  0.10023671
   0.67166724  0.33583393  0.10023670
   0.16465601  0.32180689  0.09991200
   0.32431026  0.16215460  0.09991106
   0.16465742  0.84285020  0.09991200
   0.84535321  0.16215404  0.09991345
   0.68569996  0.84284936  0.09991401
   0.84535507  0.68319776  0.09991345
   0.16656619  0.33313914  0.32888142
   0.33313673  0.16656811  0.32888253
   0.16656620  0.83342676  0.32888142
   0.33332694  0.66666322  0.32858474
   0.66666026  0.33332998  0.32858474
   0.83342443  0.16656867  0.32887902
   0.66685285  0.83342628  0.32887774
   0.83342442  0.66685523  0.32887902
Direct configuration=    14
   0.33833486  0.66916784  0.10023654
   0.67166717  0.33583393  0.10023653
   0.16465584  0.32180688  0.09991208
   0.32431034  0.16215459  0.09991114
   0.16465730  0.84285019  0.09991207
   0.84535330  0.16215406  0.09991352
   0.68569984  0.84284935  0.09991408
   0.84535521  0.68319775  0.09991352
   0.16656623  0.33313919  0.32888144
   0.33313680  0.16656814  0.32888255
   0.16656624  0.83342674  0.32888144
   0.33332695  0.66666322  0.32858462
   0.66666028  0.33332999  0.32858462
   0.83342442  0.16656870  0.32887904
   0.66685281  0.83342626  0.32887776
   0.83342441  0.66685518  0.32887904
Direct configuration=    15
   0.33833484  0.66916785  0.10023662
   0.67166721  0.33583393  0.10023661
   0.16465592  0.32180688  0.09991204
   0.32431030  0.16215459  0.09991110
   0.16465735  0.84285019  0.09991204
   0.84535326  0.16215405  0.09991349
   0.68569990  0.84284935  0.09991405
   0.84535515  0.68319775  0.09991349
   0.16656621  0.33313917  0.32888143
   0.33313677  0.16656813  0.32888254
   0.16656622  0.83342675  0.32888143
   0.33332694  0.66666322  0.32858468
   0.66666027  0.33332999  0.32858467
   0.83342442  0.16656868  0.32887903
   0.66685282  0.83342627  0.32887775
   0.83342441  0.66685520  0.32887903
Direct configuration=    16
   0.33833454  0.66916726  0.10023562
   0.67166753  0.33583363  0.10023561
   0.16465666  0.32180767  0.09991204
   0.32431103  0.16215564  0.09991106
   0.16465786  0.84284970  0.09991203
   0.84535238  0.16215297  0.09991356
   0.68570211  0.84285008  0.09991415
   0.84535380  0.68319862  0.09991355
   0.16656604  0.33313908  0.32888190
   0.33313655  0.16656807  0.32888301
   0.16656604  0.83342656  0.32888190
   0.33332669  0.66666315  0.32858417
   0.66666008  0.33332984  0.32858417
   0.83342410  0.16656863  0.32887950
   0.66685253  0.83342606  0.32887822
   0.83342409  0.66685505  0.32887950
