  16  16   0  16
  0.2064809E+02  0.5043000E-09  0.5043000E-09  0.1500000E-08  0.5000000E-15
  1.000000000000000E-004
  CAR 
 Lattice                                 
      9.69227940    -21.32935996  301     -0.98366612      1.00000000
    -21.329  0.0000E+00  0.0000E+00  0.0000E+00  0.0000E+00
    -21.226  0.0000E+00  0.0000E+00  0.0000E+00  0.0000E+00
    -21.123  0.0000E+00  0.0000E+00  0.0000E+00  0.0000E+00
    -21.019  0.0000E+00  0.0000E+00  0.0000E+00  0.0000E+00
    -20.916  0.0000E+00  0.0000E+00  0.0000E+00  0.0000E+00
    -20.812  0.0000E+00  0.0000E+00  0.0000E+00  0.0000E+00
    -20.709  0.0000E+00  0.0000E+00  0.0000E+00  0.0000E+00
    -20.606  0.0000E+00  0.0000E+00  0.0000E+00  0.0000E+00
    -20.502  0.5825E-19  0.5825E-19  0.6023E-20  0.6023E-20
    -20.399  0.3491E-14  0.3491E-14  0.3610E-15  0.3610E-15
    -20.295  0.3419E-10  0.3419E-10  0.3535E-11  0.3535E-11
    -20.192  0.4635E-07  0.4635E-07  0.4796E-08  0.4796E-08
    -20.088  0.9403E-05  0.9403E-05  0.9771E-06  0.9771E-06
    -19.985  0.3148E-03  0.3148E-03  0.3353E-04  0.3353E-04
    -19.882  0.2128E-02  0.2128E-02  0.2536E-03  0.2536E-03
    -19.778  0.4404E-02  0.4404E-02  0.7089E-03  0.7089E-03
    -19.675  0.4904E-02  0.4904E-02  0.1216E-02  0.1216E-02
    -19.571  0.5168E-02  0.5168E-02  0.1750E-02  0.1750E-02
    -19.468  0.4644E-02  0.4644E-02  0.2231E-02  0.2231E-02
    -19.365  0.5675E-02  0.5675E-02  0.2817E-02  0.2817E-02
    -19.261  0.4280E-02  0.4280E-02  0.3260E-02  0.3260E-02
    -19.158  0.5243E-02  0.5243E-02  0.3802E-02  0.3802E-02
    -19.054  0.5920E-02  0.5920E-02  0.4414E-02  0.4414E-02
    -18.951  0.3667E-02  0.3667E-02  0.4794E-02  0.4794E-02
    -18.848  0.5293E-02  0.5293E-02  0.5341E-02  0.5341E-02
    -18.744  0.6368E-02  0.6368E-02  0.5999E-02  0.5999E-02
    -18.641  0.4465E-02  0.4465E-02  0.6461E-02  0.6461E-02
    -18.537  0.3368E-02  0.3368E-02  0.6809E-02  0.6809E-02
    -18.434  0.6711E-02  0.6711E-02  0.7503E-02  0.7503E-02
    -18.331  0.6048E-02  0.6048E-02  0.8129E-02  0.8129E-02
    -18.227  0.4249E-02  0.4249E-02  0.8568E-02  0.8568E-02
    -18.124  0.3376E-02  0.3376E-02  0.8917E-02  0.8917E-02
    -18.020  0.6374E-02  0.6374E-02  0.9576E-02  0.9576E-02
    -17.917  0.1065E-01  0.1065E-01  0.1068E-01  0.1068E-01
    -17.814  0.1072E-01  0.1072E-01  0.1179E-01  0.1179E-01
    -17.710  0.1088E-01  0.1088E-01  0.1291E-01  0.1291E-01
    -17.607  0.1266E-01  0.1266E-01  0.1422E-01  0.1422E-01
    -17.503  0.1589E-01  0.1589E-01  0.1586E-01  0.1586E-01
    -17.400  0.1935E-01  0.1935E-01  0.1786E-01  0.1786E-01
    -17.297  0.2064E-01  0.2064E-01  0.2000E-01  0.2000E-01
    -17.193  0.1299E-01  0.1299E-01  0.2134E-01  0.2134E-01
    -17.090  0.6276E-02  0.6276E-02  0.2199E-01  0.2199E-01
    -16.986  0.7309E-02  0.7309E-02  0.2275E-01  0.2275E-01
    -16.883  0.6805E-02  0.6805E-02  0.2345E-01  0.2345E-01
    -16.780  0.5579E-02  0.5579E-02  0.2403E-01  0.2403E-01
    -16.676  0.4621E-02  0.4621E-02  0.2450E-01  0.2450E-01
    -16.573  0.2791E-02  0.2791E-02  0.2479E-01  0.2479E-01
    -16.469  0.4140E-02  0.4140E-02  0.2522E-01  0.2522E-01
    -16.366  0.9235E-02  0.9235E-02  0.2618E-01  0.2618E-01
    -16.262  0.6460E-02  0.6460E-02  0.2684E-01  0.2684E-01
    -16.159  0.4808E-02  0.4808E-02  0.2734E-01  0.2734E-01
    -16.056  0.4312E-02  0.4312E-02  0.2779E-01  0.2779E-01
    -15.952  0.4234E-02  0.4234E-02  0.2823E-01  0.2823E-01
    -15.849  0.3686E-02  0.3686E-02  0.2861E-01  0.2861E-01
    -15.745  0.8410E-02  0.8410E-02  0.2948E-01  0.2948E-01
    -15.642  0.1078E-01  0.1078E-01  0.3059E-01  0.3059E-01
    -15.539  0.1177E-01  0.1177E-01  0.3181E-01  0.3181E-01
    -15.435  0.1517E-01  0.1517E-01  0.3338E-01  0.3338E-01
    -15.332  0.1603E-01  0.1603E-01  0.3503E-01  0.3503E-01
    -15.228  0.1311E-01  0.1311E-01  0.3639E-01  0.3639E-01
    -15.125  0.1449E-01  0.1449E-01  0.3789E-01  0.3789E-01
    -15.022  0.1760E-01  0.1760E-01  0.3971E-01  0.3971E-01
    -14.918  0.1626E-01  0.1626E-01  0.4139E-01  0.4139E-01
    -14.815  0.1286E-01  0.1286E-01  0.4272E-01  0.4272E-01
    -14.711  0.9681E-02  0.9681E-02  0.4372E-01  0.4372E-01
    -14.608  0.9665E-02  0.9665E-02  0.4472E-01  0.4472E-01
    -14.505  0.1532E-01  0.1532E-01  0.4630E-01  0.4630E-01
    -14.401  0.1886E-01  0.1886E-01  0.4825E-01  0.4825E-01
    -14.298  0.1534E-01  0.1534E-01  0.4984E-01  0.4984E-01
    -14.194  0.1109E-01  0.1109E-01  0.5099E-01  0.5099E-01
    -14.091  0.8997E-02  0.8997E-02  0.5192E-01  0.5192E-01
    -13.988  0.7966E-02  0.7966E-02  0.5274E-01  0.5274E-01
    -13.884  0.8871E-02  0.8871E-02  0.5366E-01  0.5366E-01
    -13.781  0.7431E-02  0.7431E-02  0.5443E-01  0.5443E-01
    -13.677  0.4181E-02  0.4181E-02  0.5486E-01  0.5486E-01
    -13.574  0.4669E-02  0.4669E-02  0.5534E-01  0.5534E-01
    -13.471  0.4412E-02  0.4412E-02  0.5580E-01  0.5580E-01
    -13.367  0.5951E-02  0.5951E-02  0.5641E-01  0.5641E-01
    -13.264  0.6007E-02  0.6007E-02  0.5703E-01  0.5703E-01
    -13.160  0.6201E-02  0.6201E-02  0.5768E-01  0.5768E-01
    -13.057  0.8107E-02  0.8107E-02  0.5851E-01  0.5851E-01
    -12.954  0.7419E-02  0.7419E-02  0.5928E-01  0.5928E-01
    -12.850  0.8493E-02  0.8493E-02  0.6016E-01  0.6016E-01
    -12.747  0.6089E-02  0.6089E-02  0.6079E-01  0.6079E-01
    -12.643  0.6643E-02  0.6643E-02  0.6148E-01  0.6148E-01
    -12.540  0.5578E-02  0.5578E-02  0.6205E-01  0.6205E-01
    -12.436  0.3833E-02  0.3833E-02  0.6245E-01  0.6245E-01
    -12.333  0.8359E-02  0.8359E-02  0.6331E-01  0.6331E-01
    -12.230  0.6423E-02  0.6423E-02  0.6398E-01  0.6398E-01
    -12.126  0.4970E-02  0.4970E-02  0.6449E-01  0.6449E-01
    -12.023  0.9445E-02  0.9445E-02  0.6547E-01  0.6547E-01
    -11.919  0.1493E-01  0.1493E-01  0.6701E-01  0.6701E-01
    -11.816  0.1600E-01  0.1600E-01  0.6867E-01  0.6867E-01
    -11.713  0.1385E-01  0.1385E-01  0.7010E-01  0.7010E-01
    -11.609  0.1443E-01  0.1443E-01  0.7159E-01  0.7159E-01
    -11.506  0.1722E-01  0.1722E-01  0.7337E-01  0.7337E-01
    -11.402  0.1278E-01  0.1278E-01  0.7469E-01  0.7469E-01
    -11.299  0.9536E-02  0.9536E-02  0.7568E-01  0.7568E-01
    -11.196  0.9266E-02  0.9266E-02  0.7664E-01  0.7664E-01
    -11.092  0.1091E-01  0.1091E-01  0.7777E-01  0.7777E-01
    -10.989  0.9492E-02  0.9492E-02  0.7875E-01  0.7875E-01
    -10.885  0.6779E-02  0.6779E-02  0.7945E-01  0.7945E-01
    -10.782  0.1193E-01  0.1193E-01  0.8068E-01  0.8068E-01
    -10.679  0.1559E-01  0.1559E-01  0.8229E-01  0.8229E-01
    -10.575  0.1214E-01  0.1214E-01  0.8355E-01  0.8355E-01
    -10.472  0.7010E-02  0.7010E-02  0.8427E-01  0.8427E-01
    -10.368  0.9248E-02  0.9248E-02  0.8523E-01  0.8523E-01
    -10.265  0.1748E-01  0.1748E-01  0.8704E-01  0.8704E-01
    -10.162  0.1732E-01  0.1732E-01  0.8883E-01  0.8883E-01
    -10.058  0.1078E-01  0.1078E-01  0.8994E-01  0.8994E-01
     -9.955  0.9576E-02  0.9576E-02  0.9093E-01  0.9093E-01
     -9.851  0.9041E-02  0.9041E-02  0.9187E-01  0.9187E-01
     -9.748  0.1164E-01  0.1164E-01  0.9307E-01  0.9307E-01
     -9.645  0.8895E-02  0.8895E-02  0.9399E-01  0.9399E-01
     -9.541  0.1112E-01  0.1112E-01  0.9514E-01  0.9514E-01
     -9.438  0.1085E-01  0.1085E-01  0.9627E-01  0.9627E-01
     -9.334  0.1044E-01  0.1044E-01  0.9734E-01  0.9734E-01
     -9.231  0.1002E-01  0.1002E-01  0.9838E-01  0.9838E-01
     -9.128  0.3341E-02  0.3341E-02  0.9873E-01  0.9873E-01
     -9.024  0.1855E-02  0.1855E-02  0.9892E-01  0.9892E-01
     -8.921  0.1071E-01  0.1071E-01  0.1000E+00  0.1000E+00
     -8.817  0.1940E-01  0.1940E-01  0.1020E+00  0.1020E+00
     -8.714  0.1741E-01  0.1741E-01  0.1038E+00  0.1038E+00
     -8.610  0.1046E-01  0.1046E-01  0.1049E+00  0.1049E+00
     -8.507  0.7744E-02  0.7744E-02  0.1057E+00  0.1057E+00
     -8.404  0.8905E-02  0.8905E-02  0.1066E+00  0.1066E+00
     -8.300  0.1291E-01  0.1291E-01  0.1080E+00  0.1080E+00
     -8.197  0.2468E-01  0.2468E-01  0.1105E+00  0.1105E+00
     -8.093  0.2279E-01  0.2279E-01  0.1129E+00  0.1129E+00
     -7.990  0.1909E-01  0.1909E-01  0.1149E+00  0.1149E+00
     -7.887  0.1535E-01  0.1535E-01  0.1164E+00  0.1164E+00
     -7.783  0.1319E-01  0.1319E-01  0.1178E+00  0.1178E+00
     -7.680  0.2075E-01  0.2075E-01  0.1199E+00  0.1199E+00
     -7.576  0.2529E-01  0.2529E-01  0.1226E+00  0.1226E+00
     -7.473  0.2340E-01  0.2340E-01  0.1250E+00  0.1250E+00
     -7.370  0.2251E-01  0.2251E-01  0.1273E+00  0.1273E+00
     -7.266  0.2588E-01  0.2588E-01  0.1300E+00  0.1300E+00
     -7.163  0.2303E-01  0.2303E-01  0.1324E+00  0.1324E+00
     -7.059  0.2534E-01  0.2534E-01  0.1350E+00  0.1350E+00
     -6.956  0.2511E-01  0.2511E-01  0.1376E+00  0.1376E+00
     -6.853  0.1754E-01  0.1754E-01  0.1394E+00  0.1394E+00
     -6.749  0.2294E-01  0.2294E-01  0.1418E+00  0.1418E+00
     -6.646  0.2672E-01  0.2672E-01  0.1445E+00  0.1445E+00
     -6.542  0.2342E-01  0.2342E-01  0.1470E+00  0.1470E+00
     -6.439  0.2456E-01  0.2456E-01  0.1495E+00  0.1495E+00
     -6.336  0.2303E-01  0.2303E-01  0.1519E+00  0.1519E+00
     -6.232  0.2513E-01  0.2513E-01  0.1545E+00  0.1545E+00
     -6.129  0.1953E-01  0.1953E-01  0.1565E+00  0.1565E+00
     -6.025  0.1612E-01  0.1612E-01  0.1582E+00  0.1582E+00
     -5.922  0.1973E-01  0.1973E-01  0.1602E+00  0.1602E+00
     -5.819  0.2594E-01  0.2594E-01  0.1629E+00  0.1629E+00
     -5.715  0.2214E-01  0.2214E-01  0.1652E+00  0.1652E+00
     -5.612  0.1775E-01  0.1775E-01  0.1670E+00  0.1670E+00
     -5.508  0.2196E-01  0.2196E-01  0.1693E+00  0.1693E+00
     -5.405  0.2652E-01  0.2652E-01  0.1720E+00  0.1720E+00
     -5.302  0.2865E-01  0.2865E-01  0.1750E+00  0.1750E+00
     -5.198  0.2033E-01  0.2033E-01  0.1771E+00  0.1771E+00
     -5.095  0.1260E-01  0.1260E-01  0.1784E+00  0.1784E+00
     -4.991  0.1534E-01  0.1534E-01  0.1800E+00  0.1800E+00
     -4.888  0.1854E-01  0.1854E-01  0.1819E+00  0.1819E+00
     -4.784  0.1688E-01  0.1688E-01  0.1836E+00  0.1836E+00
     -4.681  0.1661E-01  0.1661E-01  0.1854E+00  0.1854E+00
     -4.578  0.1737E-01  0.1737E-01  0.1872E+00  0.1872E+00
     -4.474  0.1637E-01  0.1637E-01  0.1888E+00  0.1888E+00
     -4.371  0.1873E-01  0.1873E-01  0.1908E+00  0.1908E+00
     -4.267  0.2299E-01  0.2299E-01  0.1932E+00  0.1932E+00
     -4.164  0.3093E-01  0.3093E-01  0.1964E+00  0.1964E+00
     -4.061  0.4033E-01  0.4033E-01  0.2005E+00  0.2005E+00
     -3.957  0.3324E-01  0.3324E-01  0.2040E+00  0.2040E+00
     -3.854  0.2248E-01  0.2248E-01  0.2063E+00  0.2063E+00
     -3.750  0.1524E-01  0.1524E-01  0.2079E+00  0.2079E+00
     -3.647  0.1567E-01  0.1567E-01  0.2095E+00  0.2095E+00
     -3.544  0.1661E-01  0.1661E-01  0.2112E+00  0.2112E+00
     -3.440  0.2052E-01  0.2052E-01  0.2133E+00  0.2133E+00
     -3.337  0.2072E-01  0.2072E-01  0.2155E+00  0.2155E+00
     -3.233  0.1419E-01  0.1419E-01  0.2169E+00  0.2169E+00
     -3.130  0.1314E-01  0.1314E-01  0.2183E+00  0.2183E+00
     -3.027  0.1833E-01  0.1833E-01  0.2202E+00  0.2202E+00
     -2.923  0.2565E-01  0.2565E-01  0.2228E+00  0.2228E+00
     -2.820  0.1973E-01  0.1973E-01  0.2249E+00  0.2249E+00
     -2.716  0.1022E-01  0.1022E-01  0.2259E+00  0.2259E+00
     -2.613  0.1292E-01  0.1292E-01  0.2273E+00  0.2273E+00
     -2.510  0.2128E-01  0.2128E-01  0.2295E+00  0.2295E+00
     -2.406  0.2038E-01  0.2038E-01  0.2316E+00  0.2316E+00
     -2.303  0.1854E-01  0.1854E-01  0.2335E+00  0.2335E+00
     -2.199  0.2317E-01  0.2317E-01  0.2359E+00  0.2359E+00
     -2.096  0.1701E-01  0.1701E-01  0.2377E+00  0.2377E+00
     -1.993  0.4854E-02  0.4854E-02  0.2382E+00  0.2382E+00
     -1.889  0.5379E-02  0.5379E-02  0.2387E+00  0.2387E+00
     -1.786  0.7430E-02  0.7430E-02  0.2395E+00  0.2395E+00
     -1.682  0.5481E-02  0.5481E-02  0.2400E+00  0.2400E+00
     -1.579  0.6618E-02  0.6618E-02  0.2407E+00  0.2407E+00
     -1.476  0.6177E-02  0.6177E-02  0.2414E+00  0.2414E+00
     -1.372  0.4125E-02  0.4125E-02  0.2418E+00  0.2418E+00
     -1.269  0.2212E-02  0.2212E-02  0.2420E+00  0.2420E+00
     -1.165  0.4857E-03  0.4857E-03  0.2421E+00  0.2421E+00
     -1.062  0.2491E-03  0.2491E-03  0.2421E+00  0.2421E+00
     -0.958  0.1252E-02  0.1252E-02  0.2422E+00  0.2422E+00
     -0.855  0.2571E-02  0.2571E-02  0.2425E+00  0.2425E+00
     -0.752  0.3249E-02  0.3249E-02  0.2428E+00  0.2428E+00
     -0.648  0.4431E-02  0.4431E-02  0.2433E+00  0.2433E+00
     -0.545  0.8805E-02  0.8805E-02  0.2442E+00  0.2442E+00
     -0.441  0.9516E-02  0.9516E-02  0.2452E+00  0.2452E+00
     -0.338  0.9075E-02  0.9075E-02  0.2461E+00  0.2461E+00
     -0.235  0.9974E-02  0.9974E-02  0.2472E+00  0.2472E+00
     -0.131  0.1060E-01  0.1060E-01  0.2483E+00  0.2483E+00
     -0.028  0.1009E-01  0.1009E-01  0.2493E+00  0.2493E+00
      0.076  0.3737E-02  0.3737E-02  0.2497E+00  0.2497E+00
      0.179  0.4770E-02  0.4770E-02  0.2502E+00  0.2502E+00
      0.282  0.9726E-02  0.9726E-02  0.2512E+00  0.2512E+00
      0.386  0.8200E-02  0.8200E-02  0.2520E+00  0.2520E+00
      0.489  0.6367E-02  0.6367E-02  0.2527E+00  0.2527E+00
      0.593  0.7643E-02  0.7643E-02  0.2535E+00  0.2535E+00
      0.696  0.1049E-01  0.1049E-01  0.2546E+00  0.2546E+00
      0.799  0.9432E-02  0.9432E-02  0.2555E+00  0.2555E+00
      0.903  0.1050E-01  0.1050E-01  0.2566E+00  0.2566E+00
      1.006  0.8759E-02  0.8759E-02  0.2575E+00  0.2575E+00
      1.110  0.4558E-02  0.4558E-02  0.2580E+00  0.2580E+00
      1.213  0.5627E-02  0.5627E-02  0.2586E+00  0.2586E+00
      1.316  0.4960E-02  0.4960E-02  0.2591E+00  0.2591E+00
      1.420  0.4127E-02  0.4127E-02  0.2595E+00  0.2595E+00
      1.523  0.4026E-02  0.4026E-02  0.2599E+00  0.2599E+00
      1.627  0.9371E-02  0.9371E-02  0.2609E+00  0.2609E+00
      1.730  0.1146E-01  0.1146E-01  0.2621E+00  0.2621E+00
      1.833  0.3610E-02  0.3610E-02  0.2625E+00  0.2625E+00
      1.937  0.3395E-02  0.3395E-02  0.2628E+00  0.2628E+00
      2.040  0.5274E-02  0.5274E-02  0.2634E+00  0.2634E+00
      2.144  0.6223E-02  0.6223E-02  0.2640E+00  0.2640E+00
      2.247  0.1284E-01  0.1284E-01  0.2653E+00  0.2653E+00
      2.350  0.1544E-01  0.1544E-01  0.2669E+00  0.2669E+00
      2.454  0.1229E-01  0.1229E-01  0.2682E+00  0.2682E+00
      2.557  0.1320E-01  0.1320E-01  0.2696E+00  0.2696E+00
      2.661  0.1163E-01  0.1163E-01  0.2708E+00  0.2708E+00
      2.764  0.7887E-02  0.7887E-02  0.2716E+00  0.2716E+00
      2.868  0.8963E-02  0.8963E-02  0.2725E+00  0.2725E+00
      2.971  0.1089E-01  0.1089E-01  0.2736E+00  0.2736E+00
      3.074  0.1268E-01  0.1268E-01  0.2749E+00  0.2749E+00
      3.178  0.1532E-01  0.1532E-01  0.2765E+00  0.2765E+00
      3.281  0.1422E-01  0.1422E-01  0.2780E+00  0.2780E+00
      3.385  0.9120E-02  0.9120E-02  0.2789E+00  0.2789E+00
      3.488  0.7564E-02  0.7564E-02  0.2797E+00  0.2797E+00
      3.591  0.1291E-01  0.1291E-01  0.2811E+00  0.2811E+00
      3.695  0.1214E-01  0.1214E-01  0.2823E+00  0.2823E+00
      3.798  0.8753E-02  0.8753E-02  0.2832E+00  0.2832E+00
      3.902  0.1363E-01  0.1363E-01  0.2846E+00  0.2846E+00
      4.005  0.1830E-01  0.1830E-01  0.2865E+00  0.2865E+00
      4.108  0.1542E-01  0.1542E-01  0.2881E+00  0.2881E+00
      4.212  0.1453E-01  0.1453E-01  0.2896E+00  0.2896E+00
      4.315  0.1420E-01  0.1420E-01  0.2911E+00  0.2911E+00
      4.419  0.1581E-01  0.1581E-01  0.2927E+00  0.2927E+00
      4.522  0.1323E-01  0.1323E-01  0.2941E+00  0.2941E+00
      4.625  0.1306E-01  0.1306E-01  0.2954E+00  0.2954E+00
      4.729  0.1565E-01  0.1565E-01  0.2971E+00  0.2971E+00
      4.832  0.1885E-01  0.1885E-01  0.2990E+00  0.2990E+00
      4.936  0.1901E-01  0.1901E-01  0.3010E+00  0.3010E+00
      5.039  0.1805E-01  0.1805E-01  0.3028E+00  0.3028E+00
      5.142  0.1627E-01  0.1627E-01  0.3045E+00  0.3045E+00
      5.246  0.1492E-01  0.1492E-01  0.3061E+00  0.3061E+00
      5.349  0.1547E-01  0.1547E-01  0.3077E+00  0.3077E+00
      5.453  0.2044E-01  0.2044E-01  0.3098E+00  0.3098E+00
      5.556  0.1870E-01  0.1870E-01  0.3117E+00  0.3117E+00
      5.659  0.1427E-01  0.1427E-01  0.3132E+00  0.3132E+00
      5.763  0.1585E-01  0.1585E-01  0.3148E+00  0.3148E+00
      5.866  0.2422E-01  0.2422E-01  0.3173E+00  0.3173E+00
      5.970  0.2229E-01  0.2229E-01  0.3196E+00  0.3196E+00
      6.073  0.2507E-01  0.2507E-01  0.3222E+00  0.3222E+00
      6.176  0.2857E-01  0.2857E-01  0.3252E+00  0.3252E+00
      6.280  0.2596E-01  0.2596E-01  0.3279E+00  0.3279E+00
      6.383  0.2436E-01  0.2436E-01  0.3304E+00  0.3304E+00
      6.487  0.1918E-01  0.1918E-01  0.3324E+00  0.3324E+00
      6.590  0.2016E-01  0.2016E-01  0.3345E+00  0.3345E+00
      6.694  0.2960E-01  0.2960E-01  0.3375E+00  0.3375E+00
      6.797  0.3128E-01  0.3128E-01  0.3408E+00  0.3408E+00
      6.900  0.2935E-01  0.2935E-01  0.3438E+00  0.3438E+00
      7.004  0.3357E-01  0.3357E-01  0.3473E+00  0.3473E+00
      7.107  0.3370E-01  0.3370E-01  0.3507E+00  0.3507E+00
      7.211  0.2962E-01  0.2962E-01  0.3538E+00  0.3538E+00
      7.314  0.3307E-01  0.3307E-01  0.3572E+00  0.3572E+00
      7.417  0.3743E-01  0.3743E-01  0.3611E+00  0.3611E+00
      7.521  0.2993E-01  0.2993E-01  0.3642E+00  0.3642E+00
      7.624  0.2398E-01  0.2398E-01  0.3667E+00  0.3667E+00
      7.728  0.2848E-01  0.2848E-01  0.3696E+00  0.3696E+00
      7.831  0.2006E-01  0.2006E-01  0.3717E+00  0.3717E+00
      7.934  0.1441E-01  0.1441E-01  0.3732E+00  0.3732E+00
      8.038  0.9796E-02  0.9796E-02  0.3742E+00  0.3742E+00
      8.141  0.3349E-02  0.3349E-02  0.3745E+00  0.3745E+00
      8.245  0.1933E-02  0.1933E-02  0.3747E+00  0.3747E+00
      8.348  0.1936E-02  0.1936E-02  0.3749E+00  0.3749E+00
      8.451  0.5420E-03  0.5419E-03  0.3750E+00  0.3750E+00
      8.555  0.2622E-04  0.2622E-04  0.3750E+00  0.3750E+00
      8.658  0.1818E-06  0.1818E-06  0.3750E+00  0.3750E+00
      8.762  0.1654E-09  0.1653E-09  0.3750E+00  0.3750E+00
      8.865  0.1890E-13  0.1890E-13  0.3750E+00  0.3750E+00
      8.968  0.3495E-18  0.3495E-18  0.3750E+00  0.3750E+00
      9.072  0.0000E+00  0.0000E+00  0.3750E+00  0.3750E+00
      9.175  0.0000E+00  0.0000E+00  0.3750E+00  0.3750E+00
      9.279  0.0000E+00  0.0000E+00  0.3750E+00  0.3750E+00
      9.382  0.0000E+00  0.0000E+00  0.3750E+00  0.3750E+00
      9.485  0.0000E+00  0.0000E+00  0.3750E+00  0.3750E+00
      9.589  0.0000E+00  0.0000E+00  0.3750E+00  0.3750E+00
      9.692  0.0000E+00  0.0000E+00  0.3750E+00  0.3750E+00
