<?xml version="1.0" encoding="ISO-8859-1"?>
<modeling>
 <generator>
  <i name="program" type="string">vasp </i>
  <i name="version" type="string">6.3.2  </i>
  <i name="subversion" type="string">27Jun22 (build Dec 22 2022 13:13:19) complex                          parallel </i>
  <i name="platform" type="string">LinuxIFC </i>
  <i name="date" type="string">2023 08 22 </i>
  <i name="time" type="string">23:24:43 </i>
 </generator>
 <incar>
  <i type="string" name="SYSTEM">Lattice</i>
  <i type="int" name="ISTART">     0</i>
  <i type="string" name="PREC">Accurate</i>
  <i type="string" name="ALGO">Normal</i>
  <i type="int" name="ISPIN">     2</i>
  <i type="int" name="ICHARG">     2</i>
  <i type="int" name="NELM">    64</i>
  <i type="int" name="IBRION">     2</i>
  <i name="EDIFF">      0.00000100</i>
  <i name="EDIFFG">     -0.00100000</i>
  <i type="int" name="NSW">   128</i>
  <i type="int" name="ISIF">     2</i>
  <i name="ENCUT">    450.00000000</i>
  <i name="POTIM">      0.50000000</i>
  <i type="int" name="ISMEAR">     0</i>
  <i name="SIGMA">      0.10000000</i>
  <i type="logical" name="LWAVE"> F  </i>
  <i type="logical" name="LCHARG"> F  </i>
  <i type="string" name="GGA">PE</i>
  <i type="int" name="IVDW">    12</i>
 </incar>
 <primitive_cell>
  <structure name="primitive_cell" >
   <crystal>
    <varray name="basis" >
     <v>       4.19849116       2.42400000       0.00000000 </v>
     <v>      -4.19849116       2.42400000       0.00000000 </v>
     <v>       0.00000000       0.00000000      15.00000000 </v>
    </varray>
    <i name="volume">    305.31427698 </i>
    <varray name="rec_basis" >
     <v>       0.11909040       0.20627063       0.00000000 </v>
     <v>      -0.11909040       0.20627063       0.00000000 </v>
     <v>       0.00000000       0.00000000       0.06666667 </v>
    </varray>
   </crystal>
   <varray name="positions" >
    <v>       0.00415361       0.00267210       0.12034134 </v>
    <v>       0.35695335       0.00285503       0.09748893 </v>
    <v>       0.00423858       0.35550699       0.09749256 </v>
    <v>       0.65142295       0.65006557       0.09747688 </v>
    <v>       0.32808646       0.32671938       0.10030508 </v>
    <v>       0.68027775       0.00278085       0.10027562 </v>
    <v>       0.00416530       0.67883808       0.10026559 </v>
    <v>       0.99999933       0.49999967       0.33373333 </v>
    <v>       0.16666633       0.33333267       0.33373333 </v>
    <v>       0.99999933       0.99999967       0.33373333 </v>
    <v>       0.16666633       0.83333267       0.33373333 </v>
    <v>       0.49999933       0.49999967       0.33373333 </v>
    <v>       0.66666633       0.33333267       0.33373333 </v>
    <v>       0.49999933       0.99999967       0.33373333 </v>
    <v>       0.66666633       0.83333267       0.33373333 </v>
   </varray>
  </structure>
  <varray name="primitive_index" >
   <v type="int" >        1 </v>
   <v type="int" >        2 </v>
   <v type="int" >        3 </v>
   <v type="int" >        4 </v>
   <v type="int" >        5 </v>
   <v type="int" >        6 </v>
   <v type="int" >        7 </v>
   <v type="int" >        8 </v>
   <v type="int" >        9 </v>
   <v type="int" >       10 </v>
   <v type="int" >       11 </v>
   <v type="int" >       12 </v>
   <v type="int" >       13 </v>
   <v type="int" >       14 </v>
   <v type="int" >       15 </v>
  </varray>
 </primitive_cell>
 <kpoints>
  <generation param="Gamma">
   <v type="int" name="divisions">      12       12        1 </v>
   <v name="usershift">      0.00000000       0.00000000       0.00000000 </v>
   <v name="genvec1">      0.08333333      -0.00000000       0.00000000 </v>
   <v name="genvec2">     -0.00000000       0.08333333       0.00000000 </v>
   <v name="genvec3">      0.00000000       0.00000000       1.00000000 </v>
   <v name="shift">      0.00000000       0.00000000       0.00000000 </v>
  </generation>
  <varray name="kpointlist" >
   <v>       0.00000000       0.00000000       0.00000000 </v>
   <v>       0.08333333      -0.00000000       0.00000000 </v>
   <v>      -0.00000000       0.08333333       0.00000000 </v>
   <v>      -0.08333333       0.08333333       0.00000000 </v>
   <v>       0.16666667      -0.00000000       0.00000000 </v>
   <v>      -0.00000000       0.16666667       0.00000000 </v>
   <v>      -0.16666667       0.16666667       0.00000000 </v>
   <v>       0.25000000      -0.00000000       0.00000000 </v>
   <v>      -0.00000000       0.25000000       0.00000000 </v>
   <v>      -0.25000000       0.25000000       0.00000000 </v>
   <v>       0.33333333      -0.00000000       0.00000000 </v>
   <v>      -0.00000000       0.33333333       0.00000000 </v>
   <v>      -0.33333333       0.33333333       0.00000000 </v>
   <v>       0.41666667      -0.00000000       0.00000000 </v>
   <v>       0.00000000       0.41666667       0.00000000 </v>
   <v>      -0.41666667       0.41666667       0.00000000 </v>
   <v>       0.50000000      -0.00000000       0.00000000 </v>
   <v>      -0.00000000       0.50000000       0.00000000 </v>
   <v>       0.50000000       0.50000000       0.00000000 </v>
   <v>       0.08333333       0.08333333       0.00000000 </v>
   <v>      -0.08333333       0.16666667       0.00000000 </v>
   <v>      -0.16666667       0.08333333       0.00000000 </v>
   <v>       0.16666667       0.08333333       0.00000000 </v>
   <v>      -0.08333333       0.25000000       0.00000000 </v>
   <v>      -0.25000000       0.16666667       0.00000000 </v>
   <v>      -0.16666667       0.25000000       0.00000000 </v>
   <v>       0.08333333       0.16666667       0.00000000 </v>
   <v>       0.25000000      -0.08333333       0.00000000 </v>
   <v>       0.25000000       0.08333333       0.00000000 </v>
   <v>      -0.08333333       0.33333333       0.00000000 </v>
   <v>      -0.33333333       0.25000000       0.00000000 </v>
   <v>      -0.25000000       0.33333333       0.00000000 </v>
   <v>       0.08333333       0.25000000       0.00000000 </v>
   <v>       0.33333333      -0.08333333       0.00000000 </v>
   <v>       0.33333333       0.08333333       0.00000000 </v>
   <v>      -0.08333333       0.41666667       0.00000000 </v>
   <v>      -0.41666667       0.33333333       0.00000000 </v>
   <v>      -0.33333333       0.41666667       0.00000000 </v>
   <v>       0.08333333       0.33333333       0.00000000 </v>
   <v>       0.41666667      -0.08333333       0.00000000 </v>
   <v>       0.41666667       0.08333333       0.00000000 </v>
   <v>      -0.08333333       0.50000000       0.00000000 </v>
   <v>       0.50000000       0.41666667       0.00000000 </v>
   <v>      -0.41666667       0.50000000       0.00000000 </v>
   <v>       0.08333333       0.41666667       0.00000000 </v>
   <v>       0.50000000      -0.08333333       0.00000000 </v>
   <v>       0.16666667       0.16666667       0.00000000 </v>
   <v>      -0.16666667       0.33333333       0.00000000 </v>
   <v>      -0.33333333       0.16666667       0.00000000 </v>
   <v>       0.25000000       0.16666667       0.00000000 </v>
   <v>      -0.16666667       0.41666667       0.00000000 </v>
   <v>      -0.41666667       0.25000000       0.00000000 </v>
   <v>      -0.25000000       0.41666667       0.00000000 </v>
   <v>       0.16666667       0.25000000       0.00000000 </v>
   <v>       0.41666667      -0.16666667       0.00000000 </v>
   <v>       0.33333333       0.16666667       0.00000000 </v>
   <v>      -0.16666667       0.50000000       0.00000000 </v>
   <v>       0.50000000       0.33333333       0.00000000 </v>
   <v>      -0.33333333       0.50000000       0.00000000 </v>
   <v>       0.16666667       0.33333333       0.00000000 </v>
   <v>       0.50000000      -0.16666667       0.00000000 </v>
   <v>       0.41666667       0.16666667       0.00000000 </v>
   <v>      -0.16666667      -0.41666667       0.00000000 </v>
   <v>       0.41666667       0.41666667       0.00000000 </v>
   <v>       0.25000000       0.25000000       0.00000000 </v>
   <v>      -0.25000000       0.50000000       0.00000000 </v>
   <v>       0.50000000       0.25000000       0.00000000 </v>
   <v>       0.33333333       0.25000000       0.00000000 </v>
   <v>      -0.25000000      -0.41666667       0.00000000 </v>
   <v>       0.41666667       0.33333333       0.00000000 </v>
   <v>      -0.33333333      -0.41666667       0.00000000 </v>
   <v>       0.25000000       0.33333333       0.00000000 </v>
   <v>      -0.41666667      -0.25000000       0.00000000 </v>
   <v>       0.33333333       0.33333333       0.00000000 </v>
  </varray>
  <varray name="weights" >
   <v>       0.00694444 </v>
   <v>       0.01388889 </v>
   <v>       0.01388889 </v>
   <v>       0.01388889 </v>
   <v>       0.01388889 </v>
   <v>       0.01388889 </v>
   <v>       0.01388889 </v>
   <v>       0.01388889 </v>
   <v>       0.01388889 </v>
   <v>       0.01388889 </v>
   <v>       0.01388889 </v>
   <v>       0.01388889 </v>
   <v>       0.01388889 </v>
   <v>       0.01388889 </v>
   <v>       0.01388889 </v>
   <v>       0.01388889 </v>
   <v>       0.00694444 </v>
   <v>       0.00694444 </v>
   <v>       0.00694444 </v>
   <v>       0.01388889 </v>
   <v>       0.01388889 </v>
   <v>       0.01388889 </v>
   <v>       0.01388889 </v>
   <v>       0.01388889 </v>
   <v>       0.01388889 </v>
   <v>       0.01388889 </v>
   <v>       0.01388889 </v>
   <v>       0.01388889 </v>
   <v>       0.01388889 </v>
   <v>       0.01388889 </v>
   <v>       0.01388889 </v>
   <v>       0.01388889 </v>
   <v>       0.01388889 </v>
   <v>       0.01388889 </v>
   <v>       0.01388889 </v>
   <v>       0.01388889 </v>
   <v>       0.01388889 </v>
   <v>       0.01388889 </v>
   <v>       0.01388889 </v>
   <v>       0.01388889 </v>
   <v>       0.01388889 </v>
   <v>       0.01388889 </v>
   <v>       0.01388889 </v>
   <v>       0.01388889 </v>
   <v>       0.01388889 </v>
   <v>       0.01388889 </v>
   <v>       0.01388889 </v>
   <v>       0.01388889 </v>
   <v>       0.01388889 </v>
   <v>       0.01388889 </v>
   <v>       0.01388889 </v>
   <v>       0.01388889 </v>
   <v>       0.01388889 </v>
   <v>       0.01388889 </v>
   <v>       0.01388889 </v>
   <v>       0.01388889 </v>
   <v>       0.01388889 </v>
   <v>       0.01388889 </v>
   <v>       0.01388889 </v>
   <v>       0.01388889 </v>
   <v>       0.01388889 </v>
   <v>       0.01388889 </v>
   <v>       0.01388889 </v>
   <v>       0.01388889 </v>
   <v>       0.01388889 </v>
   <v>       0.01388889 </v>
   <v>       0.01388889 </v>
   <v>       0.01388889 </v>
   <v>       0.01388889 </v>
   <v>       0.01388889 </v>
   <v>       0.01388889 </v>
   <v>       0.01388889 </v>
   <v>       0.01388889 </v>
   <v>       0.01388889 </v>
  </varray>
 </kpoints>
 <parameters>
  <separator name="general" >
   <i type="string" name="SYSTEM">Lattice</i>
   <i type="logical" name="LCOMPAT"> F  </i>
  </separator>
  <separator name="electronic" >
   <i type="string" name="PREC">accura</i>
   <i name="ENMAX">    450.00000000</i>
   <i name="ENAUG">    644.87300000</i>
   <i name="EDIFF">      0.00000100</i>
   <i type="int" name="IALGO">    38</i>
   <i type="int" name="IWAVPR">    11</i>
   <i type="int" name="NBANDS">    48</i>
   <i type="int" name="NBANDSLOW">    -1</i>
   <i type="int" name="NBANDSHIGH">    -1</i>
   <i name="NELECT">     56.00000000</i>
   <i type="int" name="TURBO">     0</i>
   <i type="int" name="IRESTART">     0</i>
   <i type="int" name="NREBOOT">     0</i>
   <i type="int" name="NMIN">     0</i>
   <i name="EREF">      0.00000000</i>
   <separator name="electronic smearing" >
    <i type="int" name="ISMEAR">     0</i>
    <i name="SIGMA">      0.10000000</i>
    <i name="KSPACING">      0.50000000</i>
    <i type="logical" name="KGAMMA"> T  </i>
    <i type="logical" name="KBLOWUP"> T  </i>
   </separator>
   <separator name="electronic projectors" >
    <i type="logical" name="LREAL"> F  </i>
    <v name="ROPT">      0.00000000      0.00000000</v>
    <i type="int" name="LMAXPAW">  -100</i>
    <i type="int" name="LMAXMIX">     2</i>
    <i type="logical" name="NLSPLINE"> F  </i>
   </separator>
   <separator name="electronic startup" >
    <i type="int" name="ISTART">     0</i>
    <i type="int" name="ICHARG">     2</i>
    <i type="int" name="INIWAV">     1</i>
   </separator>
   <separator name="electronic spin" >
    <i type="int" name="ISPIN">     2</i>
    <i type="logical" name="LNONCOLLINEAR"> F  </i>
    <v name="MAGMOM">      1.00000000      1.00000000      1.00000000      1.00000000      1.00000000      1.00000000      1.00000000      1.00000000      1.00000000      1.00000000      1.00000000      1.00000000      1.00000000      1.00000000      1.00000000</v>
    <i name="NUPDOWN">     -1.00000000</i>
    <i type="logical" name="LSORBIT"> F  </i>
    <v name="SAXIS">      0.00000000      0.00000000      1.00000000</v>
    <i type="logical" name="LSPIRAL"> F  </i>
    <v name="QSPIRAL">      0.00000000      0.00000000      0.00000000</v>
    <i type="logical" name="LZEROZ"> F  </i>
   </separator>
   <separator name="electronic exchange-correlation" >
    <i type="logical" name="LASPH"> F  </i>
    <i type="logical" name="LMETAGGA"> F  </i>
   </separator>
   <separator name="electronic convergence" >
    <i type="int" name="NELM">    64</i>
    <i type="int" name="NELMDL">    -5</i>
    <i type="int" name="NELMIN">     2</i>
    <i name="ENINI">    450.00000000</i>
    <separator name="electronic convergence detail" >
     <i type="logical" name="LDIAG"> T  </i>
     <i type="logical" name="LSUBROT"> F  </i>
     <i name="WEIMIN">      0.00100000</i>
     <i name="EBREAK">      0.00000001</i>
     <i name="DEPER">      0.30000000</i>
     <i type="int" name="NRMM">     4</i>
     <i name="TIME">      0.40000000</i>
    </separator>
   </separator>
   <separator name="electronic mixer" >
    <i name="AMIX">      0.40000000</i>
    <i name="BMIX">      1.00000000</i>
    <i name="AMIN">      0.10000000</i>
    <i name="AMIX_MAG">      1.60000000</i>
    <i name="BMIX_MAG">      1.00000000</i>
    <separator name="electronic mixer details" >
     <i type="int" name="IMIX">     4</i>
     <i type="logical" name="MIXFIRST"> F  </i>
     <i type="int" name="MAXMIX">   -45</i>
     <i name="WC">    100.00000000</i>
     <i type="int" name="INIMIX">     1</i>
     <i type="int" name="MIXPRE">     1</i>
     <i type="int" name="MREMOVE">     5</i>
    </separator>
   </separator>
   <separator name="electronic dipolcorrection" >
    <i type="logical" name="LDIPOL"> F  </i>
    <i type="logical" name="LMONO"> F  </i>
    <i type="int" name="IDIPOL">     0</i>
    <i name="EPSILON">      1.00000000</i>
    <v name="DIPOL">   -100.00000000   -100.00000000   -100.00000000</v>
    <i name="EFIELD">      0.00000000</i>
   </separator>
  </separator>
  <separator name="grids" >
   <i type="int" name="NGX">    36</i>
   <i type="int" name="NGY">    36</i>
   <i type="int" name="NGZ">   108</i>
   <i type="int" name="NGXF">    72</i>
   <i type="int" name="NGYF">    72</i>
   <i type="int" name="NGZF">   216</i>
   <i type="logical" name="ADDGRID"> F  </i>
  </separator>
  <separator name="ionic" >
   <i type="int" name="NSW">   128</i>
   <i type="int" name="IBRION">     2</i>
   <i type="int" name="MDALGO">     0</i>
   <i type="int" name="ISIF">     2</i>
   <i name="PSTRESS">      0.00000000</i>
   <i name="EDIFFG">     -0.00100000</i>
   <i type="int" name="NFREE">     1</i>
   <i name="POTIM">      0.50000000</i>
   <i name="SMASS">     -3.00000000</i>
   <i name="SCALEE">      1.00000000</i>
  </separator>
  <separator name="ionic md" >
   <i name="TEBEG">      0.00010000</i>
   <i name="TEEND">      0.00010000</i>
   <i type="int" name="NBLOCK">     1</i>
   <i type="int" name="KBLOCK">   128</i>
   <i type="int" name="NPACO">   256</i>
   <i name="APACO">     10.00000000</i>
  </separator>
  <separator name="symmetry" >
   <i type="int" name="ISYM">     2</i>
   <i name="SYMPREC">      0.00001000</i>
  </separator>
  <separator name="dos" >
   <i type="int" name="LORBIT">     0</i>
   <v name="RWIGS">     -1.00000000     -1.00000000</v>
   <i type="int" name="NEDOS">   301</i>
   <i name="EMIN">     10.00000000</i>
   <i name="EMAX">    -10.00000000</i>
   <i name="EFERMI">      0.00000000</i>
  </separator>
  <separator name="writing" >
   <i type="int" name="NWRITE">     2</i>
   <i type="logical" name="LWAVE"> F  </i>
   <i type="logical" name="LDOWNSAMPLE"> F  </i>
   <i type="logical" name="LCHARG"> F  </i>
   <i type="logical" name="LPARD"> F  </i>
   <i type="logical" name="LVTOT"> F  </i>
   <i type="logical" name="LVHAR"> F  </i>
   <i type="logical" name="LELF"> F  </i>
   <i type="logical" name="LOPTICS"> F  </i>
   <v name="STM">      0.00000000      0.00000000      0.00000000      0.00000000      0.00000000      0.00000000      0.00000000</v>
  </separator>
  <separator name="performance" >
   <i type="int" name="NPAR">    48</i>
   <i type="int" name="NSIM">     4</i>
   <i type="int" name="NBLK">    -1</i>
   <i type="logical" name="LPLANE"> T  </i>
   <i type="logical" name="LSCALAPACK"> T  </i>
   <i type="logical" name="LSCAAWARE"> F  </i>
   <i type="logical" name="LSCALU"> F  </i>
   <i type="logical" name="LASYNC"> F  </i>
   <i type="logical" name="LORBITALREAL"> F  </i>
  </separator>
  <separator name="miscellaneous" >
   <i type="int" name="IDIOT">     3</i>
   <i type="int" name="PHON_NSTRUCT">    -1</i>
   <i type="logical" name="LMUSIC"> F  </i>
   <v name="POMASS">     10.81100000     12.01100000</v>
   <v name="DARWINR">      0.00000000      0.00000000</v>
   <v name="DARWINV">      1.00000000      1.00000000</v>
   <i type="logical" name="LCORR"> T  </i>
  </separator>
  <i type="logical" name="GGA_COMPAT"> T  </i>
  <i type="logical" name="LBERRY"> F  </i>
  <i type="int" name="ICORELEVEL">     0</i>
  <i type="logical" name="LDAU"> F  </i>
  <i type="int" name="I_CONSTRAINED_M">     0</i>
  <separator name="electronic exchange-correlation" >
   <i type="string" name="GGA">PE</i>
   <i type="int" name="VOSKOWN">     0</i>
   <i type="logical" name="LHFCALC"> F  </i>
   <i type="string" name="PRECFOCK"></i>
   <i type="logical" name="LSYMGRAD"> F  </i>
   <i type="logical" name="LHFONE"> F  </i>
   <i type="logical" name="LRHFCALC"> F  </i>
   <i type="logical" name="LTHOMAS"> F  </i>
   <i type="logical" name="LMODELHF"> F  </i>
   <i type="logical" name="LFOCKACE"> F  </i>
   <i name="ENCUT4O">     -1.00000000</i>
   <i type="int" name="EXXOEP">     0</i>
   <i type="int" name="FOURORBIT">     0</i>
   <i name="AEXX">      0.00000000</i>
   <i name="HFALPHA">      0.00000000</i>
   <i name="MCALPHA">      0.00000000</i>
   <i name="ALDAX">      1.00000000</i>
   <i name="AGGAX">      1.00000000</i>
   <i name="ALDAC">      1.00000000</i>
   <i name="AGGAC">      1.00000000</i>
   <i type="int" name="NKREDX">     1</i>
   <i type="int" name="NKREDY">     1</i>
   <i type="int" name="NKREDZ">     1</i>
   <i type="logical" name="SHIFTRED"> F  </i>
   <i type="logical" name="ODDONLY"> F  </i>
   <i type="logical" name="EVENONLY"> F  </i>
   <i type="int" name="LMAXFOCK">     0</i>
   <i type="int" name="NMAXFOCKAE">     0</i>
   <i type="logical" name="LFOCKAEDFT"> F  </i>
   <i name="HFSCREEN">      0.00000000</i>
   <i name="HFSCREENC">      0.00000000</i>
   <i type="int" name="NBANDSGWLOW">     0</i>
  </separator>
  <separator name="vdW DFT" >
   <i type="logical" name="LUSE_VDW"> F  </i>
   <i name="Zab_VDW">     -0.84910000</i>
   <i name="PARAM1">      0.12340000</i>
   <i name="PARAM2">      1.00000000</i>
   <i name="PARAM3">      0.00000000</i>
  </separator>
  <separator name="model GW" >
   <i type="int" name="MODEL_GW">     0</i>
   <i name="MODEL_EPS0">     12.21257108</i>
   <i name="MODEL_ALPHA">      1.00000000</i>
  </separator>
  <separator name="linear response parameters" >
   <i type="logical" name="LEPSILON"> F  </i>
   <i type="logical" name="LRPA"> F  </i>
   <i type="logical" name="LNABLA"> F  </i>
   <i type="logical" name="LVEL"> F  </i>
   <i name="CSHIFT">      0.10000000</i>
   <i name="OMEGAMAX">     -1.00000000</i>
   <i name="DEG_THRESHOLD">      0.00200000</i>
   <i name="RTIME">     -0.10000000</i>
   <i name="WPLASMAI">      0.00000000</i>
   <v name="DFIELD">      0.00000000      0.00000000      0.00000000</v>
   <v name="WPLASMA">      0.00000000      0.00000000      0.00000000      0.00000000      0.00000000      0.00000000      0.00000000      0.00000000      0.00000000</v>
  </separator>
  <separator name="orbital magnetization" >
   <i type="logical" name="NUCIND"> F  </i>
   <v name="MAGPOS">      0.00000000      0.00000000      0.00000000</v>
   <i type="logical" name="LNICSALL"> T  </i>
   <i type="logical" name="ORBITALMAG"> F  </i>
   <i type="logical" name="LMAGBLOCH"> F  </i>
   <i type="logical" name="LCHIMAG"> F  </i>
   <i type="logical" name="LGAUGE"> T  </i>
   <i type="int" name="MAGATOM">     0</i>
   <v name="MAGDIPOL">      0.00000000      0.00000000      0.00000000</v>
   <v name="AVECCONST">      0.00000000      0.00000000      0.00000000</v>
  </separator>
  <separator name="response functions" >
   <i type="logical" name="LFINITE_TEMPERATURE"> F  </i>
   <i type="logical" name="LADDER"> F  </i>
   <i type="logical" name="LRPAFORCE"> F  </i>
   <i type="logical" name="LFXC"> F  </i>
   <i type="logical" name="LHARTREE"> T  </i>
   <i type="int" name="IBSE">     0</i>
   <v type="int" name="KPOINT">    -1     0     0     0</v>
   <i type="logical" name="LTCTC"> F  </i>
   <i type="logical" name="LTCTE"> F  </i>
   <i type="logical" name="LTETE"> F  </i>
   <i type="logical" name="LTRIPLET"> F  </i>
   <i type="logical" name="LFXCEPS"> F  </i>
   <i type="logical" name="LFXHEG"> F  </i>
   <i type="int" name="NATURALO">     2</i>
   <i type="logical" name="LHOLEGF"> F  </i>
   <i type="logical" name="L2ORDER"> F  </i>
   <i type="logical" name="LDMP1"> F  </i>
   <i type="logical" name="LMP2LT"> F  </i>
   <i type="logical" name="LSMP2LT"> F  </i>
   <i type="logical" name="LGWLF"> F  </i>
   <i name="ENCUTGW">     -2.00000000</i>
   <i name="ENCUTGWSOFT">     -2.00000000</i>
   <i name="ENCUTLF">     -1.00000000</i>
   <i type="logical" name="LESF_SPLINES"> F  </i>
   <i type="int" name="LMAXMP2">    -1</i>
   <i name="SCISSOR">      0.00000000</i>
   <i type="int" name="NOMEGA">     0</i>
   <i type="int" name="NOMEGAR">     0</i>
   <i type="int" name="NBANDSGW">    -1</i>
   <i type="int" name="NBANDSO">    -1</i>
   <i type="int" name="NBANDSV">    -1</i>
   <i type="int" name="NELMGW">     1</i>
   <i type="int" name="NELMHF">     1</i>
   <i type="int" name="DIM">     3</i>
   <i type="int" name="IESPILON">     4</i>
   <i type="int" name="ANTIRES">     0</i>
   <i name="OMEGAMAX">    -30.00000000</i>
   <i name="OMEGAMIN">    -30.00000000</i>
   <i name="OMEGATL">   -200.00000000</i>
   <i type="int" name="OMEGAGRID">     0</i>
   <i name="CSHIFT">     -0.10000000</i>
   <i type="logical" name="LSELFENERGY"> F  </i>
   <i type="logical" name="LSPECTRAL"> F  </i>
   <i type="logical" name="LSPECTRALGW"> F  </i>
   <i type="logical" name="LSINGLES"> F  </i>
   <i type="logical" name="LFERMIGW"> F  </i>
   <i type="logical" name="ODDONLYGW"> F  </i>
   <i type="logical" name="EVENONLYGW"> F  </i>
   <i type="int" name="NKREDLFX">     1</i>
   <i type="int" name="NKREDLFY">     1</i>
   <i type="int" name="NKREDLFZ">     1</i>
   <i type="int" name="MAXMEM">  2800</i>
   <i type="int" name="TELESCOPE">     0</i>
   <i type="int" name="NTAUPAR">    -1</i>
   <i type="int" name="NOMEGAPAR">    -1</i>
   <i name="DAMP_NEWTON">      0.80000001</i>
   <i name="LAMBDA">      1.00000000</i>
  </separator>
  <separator name="External order field" >
   <i name="OFIELD_KAPPA">      0.00000000</i>
   <v name="OFIELD_K">      0.00000000      0.00000000      0.00000000</v>
   <i name="OFIELD_Q6_NEAR">      0.00000000</i>
   <i name="OFIELD_Q6_FAR">      0.00000000</i>
   <i name="OFIELD_A">      0.00000000</i>
  </separator>
  <separator name="optional k-points parameters" >
   <i type="int" name="KPOINTS_OPT_MODE">     1</i>
   <i type="logical" name="LKPOINTS_OPT"> F  </i>
  </separator>
  <separator name="solvation model" >
   <i type="logical" name="LSOL"> F  </i>
  </separator>
 </parameters>
 <atominfo>
  <atoms>      15 </atoms>
  <types>       2 </types>
  <array name="atoms" >
   <dimension dim="1">ion</dimension>
   <field type="string">element</field>
   <field type="int">atomtype</field>
   <set>
    <rc><c>B </c><c>   1</c></rc>
    <rc><c>B </c><c>   1</c></rc>
    <rc><c>B </c><c>   1</c></rc>
    <rc><c>B </c><c>   1</c></rc>
    <rc><c>C </c><c>   2</c></rc>
    <rc><c>C </c><c>   2</c></rc>
    <rc><c>C </c><c>   2</c></rc>
    <rc><c>C </c><c>   2</c></rc>
    <rc><c>C </c><c>   2</c></rc>
    <rc><c>C </c><c>   2</c></rc>
    <rc><c>C </c><c>   2</c></rc>
    <rc><c>C </c><c>   2</c></rc>
    <rc><c>C </c><c>   2</c></rc>
    <rc><c>C </c><c>   2</c></rc>
    <rc><c>C </c><c>   2</c></rc>
   </set>
  </array>
  <array name="atomtypes" >
   <dimension dim="1">type</dimension>
   <field type="int">atomspertype</field>
   <field type="string">element</field>
   <field>mass</field>
   <field>valence</field>
   <field type="string">pseudopotential</field>
   <set>
    <rc><c>   4</c><c>B </c><c>     10.81100000</c><c>      3.00000000</c><c>  PAW_PBE B 06Sep2000                   </c></rc>
    <rc><c>  11</c><c>C </c><c>     12.01100000</c><c>      4.00000000</c><c>  PAW_PBE C 08Apr2002                   </c></rc>
   </set>
  </array>
 </atominfo>
 <structure name="initialpos" >
  <crystal>
   <varray name="basis" >
    <v>       4.19849116       2.42400000       0.00000000 </v>
    <v>      -4.19849116       2.42400000       0.00000000 </v>
    <v>       0.00000000       0.00000000      15.00000000 </v>
   </varray>
   <i name="volume">    305.31427698 </i>
   <varray name="rec_basis" >
    <v>       0.11909040       0.20627063       0.00000000 </v>
    <v>      -0.11909040       0.20627063       0.00000000 </v>
    <v>       0.00000000       0.00000000       0.06666667 </v>
   </varray>
  </crystal>
  <varray name="positions" >
   <v>       0.00415361       0.00267210       0.12034134 </v>
   <v>       0.35695335       0.00285503       0.09748893 </v>
   <v>       0.00423858       0.35550699       0.09749256 </v>
   <v>       0.65142295       0.65006557       0.09747688 </v>
   <v>       0.32808646       0.32671938       0.10030508 </v>
   <v>       0.68027775       0.00278085       0.10027562 </v>
   <v>       0.00416530       0.67883808       0.10026559 </v>
   <v>       0.99999933       0.49999967       0.33373333 </v>
   <v>       0.16666633       0.33333267       0.33373333 </v>
   <v>       0.99999933       0.99999967       0.33373333 </v>
   <v>       0.16666633       0.83333267       0.33373333 </v>
   <v>       0.49999933       0.49999967       0.33373333 </v>
   <v>       0.66666633       0.33333267       0.33373333 </v>
   <v>       0.49999933       0.99999967       0.33373333 </v>
   <v>       0.66666633       0.83333267       0.33373333 </v>
  </varray>
 </structure>
 <calculation>
  <scstep>
   <time name="dav">    5.54    5.61</time>
   <time name="total">    5.59    5.66</time>
   <energy>
    <i name="alphaZ">     58.25896848 </i>
    <i name="ewald">   4776.99162319 </i>
    <i name="hartreedc">  -6333.46670195 </i>
    <i name="XCdc">    175.09813001 </i>
    <i name="pawpsdc">   1365.87943566 </i>
    <i name="pawaedc">  -1368.52100941 </i>
    <i name="eentropy">     -0.01870307 </i>
    <i name="bandstr">   -375.18530095 </i>
    <i name="atom">   1903.26342058 </i>
    <i name="e_fr_energy">    202.29986254 </i>
    <i name="e_wo_entrp">    202.31856561 </i>
    <i name="e_0_energy">    202.30921407 </i>
   </energy>
  </scstep>
  <scstep>
   <time name="dav">    7.90    7.97</time>
   <time name="total">    7.90    7.97</time>
   <energy>
    <i name="e_fr_energy">   -116.20700564 </i>
    <i name="e_wo_entrp">   -116.20547442 </i>
    <i name="e_0_energy">   -116.20624003 </i>
   </energy>
  </scstep>
  <scstep>
   <time name="dav">   11.06   11.16</time>
   <time name="total">   11.06   11.16</time>
   <energy>
    <i name="e_fr_energy">   -129.30147935 </i>
    <i name="e_wo_entrp">   -129.29826469 </i>
    <i name="e_0_energy">   -129.29987202 </i>
   </energy>
  </scstep>
  <scstep>
   <time name="dav">    8.48    8.56</time>
   <time name="total">    8.48    8.56</time>
   <energy>
    <i name="e_fr_energy">   -129.33073790 </i>
    <i name="e_wo_entrp">   -129.32753271 </i>
    <i name="e_0_energy">   -129.32913531 </i>
   </energy>
  </scstep>
  <scstep>
   <time name="dav">   10.57   10.65</time>
   <time name="total">   10.83   10.92</time>
   <energy>
    <i name="e_fr_energy">   -129.33079297 </i>
    <i name="e_wo_entrp">   -129.32758753 </i>
    <i name="e_0_energy">   -129.32919025 </i>
   </energy>
  </scstep>
  <scstep>
   <time name="dav">   10.67   10.75</time>
   <time name="total">   10.97   11.06</time>
   <energy>
    <i name="e_fr_energy">    -92.11506070 </i>
    <i name="e_wo_entrp">    -92.10895961 </i>
    <i name="e_0_energy">    -92.11201015 </i>
   </energy>
  </scstep>
  <scstep>
   <time name="dav">    8.97    9.04</time>
   <time name="total">    9.26    9.34</time>
   <energy>
    <i name="e_fr_energy">   -100.56156727 </i>
    <i name="e_wo_entrp">   -100.55591965 </i>
    <i name="e_0_energy">   -100.55874346 </i>
   </energy>
  </scstep>
  <scstep>
   <time name="dav">   10.19   10.27</time>
   <time name="total">   10.48   10.57</time>
   <energy>
    <i name="e_fr_energy">   -110.47741847 </i>
    <i name="e_wo_entrp">   -110.47740365 </i>
    <i name="e_0_energy">   -110.47741106 </i>
   </energy>
  </scstep>
  <scstep>
   <time name="dav">    7.88    7.94</time>
   <time name="total">    8.17    8.25</time>
   <energy>
    <i name="e_fr_energy">   -117.31649820 </i>
    <i name="e_wo_entrp">   -117.31649356 </i>
    <i name="e_0_energy">   -117.31649588 </i>
   </energy>
  </scstep>
  <scstep>
   <time name="dav">    9.85    9.91</time>
   <time name="total">   10.14   10.21</time>
   <energy>
    <i name="e_fr_energy">   -123.65915928 </i>
    <i name="e_wo_entrp">   -123.65847684 </i>
    <i name="e_0_energy">   -123.65881806 </i>
   </energy>
  </scstep>
  <scstep>
   <time name="dav">   10.82   10.89</time>
   <time name="total">   11.11   11.20</time>
   <energy>
    <i name="e_fr_energy">   -125.27570079 </i>
    <i name="e_wo_entrp">   -125.27452786 </i>
    <i name="e_0_energy">   -125.27511432 </i>
   </energy>
  </scstep>
  <scstep>
   <time name="dav">    7.42    7.47</time>
   <time name="total">    7.71    7.77</time>
   <energy>
    <i name="e_fr_energy">   -125.42997928 </i>
    <i name="e_wo_entrp">   -125.42850022 </i>
    <i name="e_0_energy">   -125.42923975 </i>
   </energy>
  </scstep>
  <scstep>
   <time name="dav">    7.31    7.36</time>
   <time name="total">    7.60    7.66</time>
   <energy>
    <i name="e_fr_energy">   -125.46481854 </i>
    <i name="e_wo_entrp">   -125.46328483 </i>
    <i name="e_0_energy">   -125.46405168 </i>
   </energy>
  </scstep>
  <scstep>
   <time name="dav">    7.98    8.04</time>
   <time name="total">    8.27    8.34</time>
   <energy>
    <i name="e_fr_energy">   -125.48787044 </i>
    <i name="e_wo_entrp">   -125.48633204 </i>
    <i name="e_0_energy">   -125.48710124 </i>
   </energy>
  </scstep>
  <scstep>
   <time name="dav">    7.31    7.36</time>
   <time name="total">    7.60    7.66</time>
   <energy>
    <i name="e_fr_energy">   -125.49456571 </i>
    <i name="e_wo_entrp">   -125.49302679 </i>
    <i name="e_0_energy">   -125.49379625 </i>
   </energy>
  </scstep>
  <scstep>
   <time name="dav">    6.68    6.72</time>
   <time name="total">    6.97    7.02</time>
   <energy>
    <i name="e_fr_energy">   -125.49657014 </i>
    <i name="e_wo_entrp">   -125.49503127 </i>
    <i name="e_0_energy">   -125.49580071 </i>
   </energy>
  </scstep>
  <scstep>
   <time name="dav">    6.89    6.94</time>
   <time name="total">    7.17    7.24</time>
   <energy>
    <i name="e_fr_energy">   -125.49781997 </i>
    <i name="e_wo_entrp">   -125.49628111 </i>
    <i name="e_0_energy">   -125.49705054 </i>
   </energy>
  </scstep>
  <scstep>
   <time name="dav">    6.74    6.79</time>
   <time name="total">    7.02    7.08</time>
   <energy>
    <i name="e_fr_energy">   -125.49859240 </i>
    <i name="e_wo_entrp">   -125.49705355 </i>
    <i name="e_0_energy">   -125.49782298 </i>
   </energy>
  </scstep>
  <scstep>
   <time name="dav">    8.35    8.42</time>
   <time name="total">    8.64    8.72</time>
   <energy>
    <i name="e_fr_energy">   -125.49901165 </i>
    <i name="e_wo_entrp">   -125.49747283 </i>
    <i name="e_0_energy">   -125.49824224 </i>
   </energy>
  </scstep>
  <scstep>
   <time name="dav">    8.83    8.89</time>
   <time name="total">    9.12    9.19</time>
   <energy>
    <i name="e_fr_energy">   -125.49904896 </i>
    <i name="e_wo_entrp">   -125.49751013 </i>
    <i name="e_0_energy">   -125.49827954 </i>
   </energy>
  </scstep>
  <scstep>
   <time name="dav">    8.53    8.58</time>
   <time name="total">    8.81    8.88</time>
   <energy>
    <i name="e_fr_energy">   -125.49907356 </i>
    <i name="e_wo_entrp">   -125.49753470 </i>
    <i name="e_0_energy">   -125.49830413 </i>
   </energy>
  </scstep>
  <scstep>
   <time name="dav">    9.24    9.30</time>
   <time name="total">    9.52    9.60</time>
   <energy>
    <i name="e_fr_energy">   -125.49909692 </i>
    <i name="e_wo_entrp">   -125.49755806 </i>
    <i name="e_0_energy">   -125.49832749 </i>
   </energy>
  </scstep>
  <scstep>
   <time name="dav">    8.63    8.69</time>
   <time name="total">    8.91    8.98</time>
   <energy>
    <i name="e_fr_energy">   -125.49910788 </i>
    <i name="e_wo_entrp">   -125.49756901 </i>
    <i name="e_0_energy">   -125.49833845 </i>
   </energy>
  </scstep>
  <scstep>
   <time name="dav">    9.55    9.61</time>
   <time name="total">    9.84    9.91</time>
   <energy>
    <i name="e_fr_energy">   -125.49911024 </i>
    <i name="e_wo_entrp">   -125.49757137 </i>
    <i name="e_0_energy">   -125.49834081 </i>
   </energy>
  </scstep>
  <scstep>
   <time name="dav">    8.47    8.53</time>
   <time name="total">    8.76    8.83</time>
   <energy>
    <i name="e_fr_energy">   -125.49911126 </i>
    <i name="e_wo_entrp">   -125.49757239 </i>
    <i name="e_0_energy">   -125.49834183 </i>
   </energy>
  </scstep>
  <scstep>
   <time name="dav">    9.13    9.20</time>
   <time name="total">    9.17    9.24</time>
   <energy>
    <i name="alphaZ">     58.25896848 </i>
    <i name="ewald">   4776.99162319 </i>
    <i name="hartreedc">  -6534.37473185 </i>
    <i name="XCdc">    180.44267165 </i>
    <i name="pawpsdc">   5725.17109097 </i>
    <i name="pawaedc">  -5729.57756374 </i>
    <i name="eentropy">     -0.00153887 </i>
    <i name="bandstr">   -505.67305216 </i>
    <i name="atom">   1903.26342058 </i>
    <i name="e_fr_energy">   -125.49911176 </i>
    <i name="e_wo_entrp">   -125.49757289 </i>
    <i name="e_0_energy">   -125.49834233 </i>
   </energy>
  </scstep>
  <structure>
   <crystal>
    <varray name="basis" >
     <v>       4.19849116       2.42400000       0.00000000 </v>
     <v>      -4.19849116       2.42400000       0.00000000 </v>
     <v>       0.00000000       0.00000000      15.00000000 </v>
    </varray>
    <i name="volume">    305.31427698 </i>
    <varray name="rec_basis" >
     <v>       0.11909040       0.20627063       0.00000000 </v>
     <v>      -0.11909040       0.20627063       0.00000000 </v>
     <v>       0.00000000       0.00000000       0.06666667 </v>
    </varray>
   </crystal>
   <varray name="positions" >
    <v>       0.00415361       0.00267210       0.12034134 </v>
    <v>       0.35695335       0.00285503       0.09748893 </v>
    <v>       0.00423858       0.35550699       0.09749256 </v>
    <v>       0.65142295       0.65006557       0.09747688 </v>
    <v>       0.32808646       0.32671938       0.10030508 </v>
    <v>       0.68027775       0.00278085       0.10027562 </v>
    <v>       0.00416530       0.67883808       0.10026559 </v>
    <v>       0.99999933       0.49999967       0.33373333 </v>
    <v>       0.16666633       0.33333267       0.33373333 </v>
    <v>       0.99999933       0.99999967       0.33373333 </v>
    <v>       0.16666633       0.83333267       0.33373333 </v>
    <v>       0.49999933       0.49999967       0.33373333 </v>
    <v>       0.66666633       0.33333267       0.33373333 </v>
    <v>       0.49999933       0.99999967       0.33373333 </v>
    <v>       0.66666633       0.83333267       0.33373333 </v>
   </varray>
  </structure>
  <varray name="forces" >
   <v>      -0.00462657       0.00535742      -0.34996064 </v>
   <v>      -0.11313218      -0.04733148       0.10783717 </v>
   <v>       0.09274582      -0.08171205       0.10735636 </v>
   <v>       0.02273479       0.12145367       0.10891981 </v>
   <v>       0.03004225      -0.36066032      -0.00269599 </v>
   <v>       0.29561736       0.20344068      -0.00020684 </v>
   <v>      -0.32369436       0.15865384       0.00064815 </v>
   <v>       0.01323738       0.00517661       0.00282760 </v>
   <v>      -0.03530218       0.04099247       0.02139323 </v>
   <v>       0.00051169      -0.00030501      -0.03114907 </v>
   <v>       0.05262379       0.00963556       0.02229035 </v>
   <v>      -0.01078329       0.01031652       0.00372260 </v>
   <v>      -0.00045794       0.00025833      -0.01495547 </v>
   <v>      -0.00182339      -0.01396597       0.00268077 </v>
   <v>      -0.01769319      -0.05131026       0.02129198 </v>
  </varray>
  <varray name="stress" >
   <v>      -8.67133634       0.01676266      -0.00195594 </v>
   <v>       0.01676269      -8.64776494       0.02450363 </v>
   <v>      -0.00195594       0.02450364      -2.23154413 </v>
  </varray>
  <energy>
   <i name="e_fr_energy">   -127.10243817 </i>
   <i name="e_wo_entrp">   -127.10089930 </i>
   <i name="e_0_energy">   -127.10166873 </i>
  </energy>
  <time name="totalsc">  233.84  235.78</time>
 </calculation>
 <calculation>
  <scstep>
   <time name="dav">    5.49    5.53</time>
   <time name="total">    5.77    5.83</time>
   <energy>
    <i name="alphaZ">     58.25896848 </i>
    <i name="ewald">   4780.51618467 </i>
    <i name="hartreedc">  -6536.51272723 </i>
    <i name="XCdc">    180.52187838 </i>
    <i name="pawpsdc">   5725.17774390 </i>
    <i name="pawaedc">  -5729.58421963 </i>
    <i name="eentropy">     -0.00154343 </i>
    <i name="bandstr">   -507.14722052 </i>
    <i name="atom">   1903.26342058 </i>
    <i name="e_fr_energy">   -125.50751481 </i>
    <i name="e_wo_entrp">   -125.50597137 </i>
    <i name="e_0_energy">   -125.50674309 </i>
   </energy>
  </scstep>
  <scstep>
   <time name="dav">   10.93   11.00</time>
   <time name="total">   11.21   11.30</time>
   <energy>
    <i name="e_fr_energy">   -125.49869103 </i>
    <i name="e_wo_entrp">   -125.49714745 </i>
    <i name="e_0_energy">   -125.49791924 </i>
   </energy>
  </scstep>
  <scstep>
   <time name="dav">    8.76    8.81</time>
   <time name="total">    9.04    9.11</time>
   <energy>
    <i name="e_fr_energy">   -125.49765880 </i>
    <i name="e_wo_entrp">   -125.49611512 </i>
    <i name="e_0_energy">   -125.49688696 </i>
   </energy>
  </scstep>
  <scstep>
   <time name="dav">   11.04   11.11</time>
   <time name="total">   11.33   11.41</time>
   <energy>
    <i name="e_fr_energy">   -125.49761206 </i>
    <i name="e_wo_entrp">   -125.49606860 </i>
    <i name="e_0_energy">   -125.49684033 </i>
   </energy>
  </scstep>
  <scstep>
   <time name="dav">    9.61    9.67</time>
   <time name="total">    9.89    9.97</time>
   <energy>
    <i name="e_fr_energy">   -125.49761481 </i>
    <i name="e_wo_entrp">   -125.49607142 </i>
    <i name="e_0_energy">   -125.49684311 </i>
   </energy>
  </scstep>
  <scstep>
   <time name="dav">    9.40    9.45</time>
   <time name="total">    9.43    9.49</time>
   <energy>
    <i name="alphaZ">     58.25896848 </i>
    <i name="ewald">   4780.51618467 </i>
    <i name="hartreedc">  -6537.26106881 </i>
    <i name="XCdc">    180.53872058 </i>
    <i name="pawpsdc">   5751.45929944 </i>
    <i name="pawaedc">  -5755.87429552 </i>
    <i name="eentropy">     -0.00154340 </i>
    <i name="bandstr">   -506.39730093 </i>
    <i name="atom">   1903.26342058 </i>
    <i name="e_fr_energy">   -125.49761492 </i>
    <i name="e_wo_entrp">   -125.49607152 </i>
    <i name="e_0_energy">   -125.49684322 </i>
   </energy>
  </scstep>
  <structure>
   <crystal>
    <varray name="basis" >
     <v>       4.19849116       2.42400000       0.00000000 </v>
     <v>      -4.19849116       2.42400000       0.00000000 </v>
     <v>       0.00000000       0.00000000      15.00000000 </v>
    </varray>
    <i name="volume">    305.31427698 </i>
    <varray name="rec_basis" >
     <v>       0.11909040       0.20627063       0.00000000 </v>
     <v>      -0.11909040       0.20627063       0.00000000 </v>
     <v>       0.00000000       0.00000000       0.06666667 </v>
    </varray>
   </crystal>
   <varray name="positions" >
    <v>       0.00418034       0.00275199       0.11921580 </v>
    <v>       0.35583238       0.00303400       0.09783576 </v>
    <v>       0.00395830       0.35416102       0.09783784 </v>
    <v>       0.65276216       0.65114354       0.09782718 </v>
    <v>       0.32467012       0.32295783       0.10029641 </v>
    <v>       0.68400059       0.00310691       0.10027496 </v>
    <v>       0.00388437       0.68227655       0.10026767 </v>
    <v>       0.00012690       0.49997513       0.33374243 </v>
    <v>       0.16687143       0.33394340       0.33380214 </v>
    <v>       0.99999924       0.99999369       0.33363315 </v>
    <v>       0.16706455       0.83312621       0.33380502 </v>
    <v>       0.50004004       0.50016428       0.33374531 </v>
    <v>       0.66666627       0.33333787       0.33368523 </v>
    <v>       0.49984988       0.99987117       0.33374196 </v>
    <v>       0.66605409       0.83292373       0.33380181 </v>
   </varray>
  </structure>
  <varray name="forces" >
   <v>      -0.00111414      -0.00058654      -0.13286835 </v>
   <v>       0.24137321       0.13758219       0.05737379 </v>
   <v>      -0.24365170       0.13929002       0.05698645 </v>
   <v>       0.00166187      -0.27601668       0.05811653 </v>
   <v>      -0.00372923       0.57650506      -0.02370383 </v>
   <v>      -0.49371463      -0.29242566      -0.02181336 </v>
   <v>       0.49888092      -0.28516708      -0.02154873 </v>
   <v>      -0.05546684      -0.02253636       0.01040254 </v>
   <v>       0.12463645      -0.13813217      -0.00097361 </v>
   <v>      -0.00189221       0.00128024       0.00779695 </v>
   <v>      -0.18004042      -0.03573275      -0.00079625 </v>
   <v>       0.04608897      -0.04137705       0.01056425 </v>
   <v>       0.00197976      -0.00038300      -0.00878945 </v>
   <v>       0.00682560       0.05906750       0.01031913 </v>
   <v>       0.05816240       0.17863227      -0.00106608 </v>
  </varray>
  <varray name="stress" >
   <v>      -6.01657626       0.00170405       0.00374872 </v>
   <v>       0.00170404      -6.01505148       0.01627929 </v>
   <v>       0.00374870       0.01627928      -1.85916603 </v>
  </varray>
  <energy>
   <i name="e_fr_energy">   -127.10036363 </i>
   <i name="e_wo_entrp">   -127.09882023 </i>
   <i name="e_0_energy">   -127.09959193 </i>
  </energy>
  <time name="totalsc">   61.37   61.84</time>
 </calculation>
 <calculation>
  <scstep>
   <time name="dav">    5.48    5.52</time>
   <time name="total">    5.77    5.83</time>
   <energy>
    <i name="alphaZ">     58.25896848 </i>
    <i name="ewald">   4778.59618882 </i>
    <i name="hartreedc">  -6536.08601435 </i>
    <i name="XCdc">    180.49505165 </i>
    <i name="pawpsdc">   5751.41740738 </i>
    <i name="pawaedc">  -5755.83237613 </i>
    <i name="eentropy">     -0.00154112 </i>
    <i name="bandstr">   -505.62013411 </i>
    <i name="atom">   1903.26342058 </i>
    <i name="e_fr_energy">   -125.50902881 </i>
    <i name="e_wo_entrp">   -125.50748768 </i>
    <i name="e_0_energy">   -125.50825825 </i>
   </energy>
  </scstep>
  <scstep>
   <time name="dav">   10.96   11.03</time>
   <time name="total">   11.25   11.33</time>
   <energy>
    <i name="e_fr_energy">   -125.50646933 </i>
    <i name="e_wo_entrp">   -125.50492835 </i>
    <i name="e_0_energy">   -125.50569884 </i>
   </energy>
  </scstep>
  <scstep>
   <time name="dav">    9.89    9.95</time>
   <time name="total">   10.18   10.25</time>
   <energy>
    <i name="e_fr_energy">   -125.50618544 </i>
    <i name="e_wo_entrp">   -125.50464454 </i>
    <i name="e_0_energy">   -125.50541499 </i>
   </energy>
  </scstep>
  <scstep>
   <time name="dav">    9.27    9.33</time>
   <time name="total">    9.55    9.63</time>
   <energy>
    <i name="e_fr_energy">   -125.50617252 </i>
    <i name="e_wo_entrp">   -125.50463146 </i>
    <i name="e_0_energy">   -125.50540199 </i>
   </energy>
  </scstep>
  <scstep>
   <time name="dav">    9.29    9.35</time>
   <time name="total">    9.33    9.38</time>
   <energy>
    <i name="alphaZ">     58.25896848 </i>
    <i name="ewald">   4778.59618882 </i>
    <i name="hartreedc">  -6535.71300974 </i>
    <i name="XCdc">    180.48627088 </i>
    <i name="pawpsdc">   5736.73699109 </i>
    <i name="pawaedc">  -5741.14711823 </i>
    <i name="eentropy">     -0.00154107 </i>
    <i name="bandstr">   -505.98634415 </i>
    <i name="atom">   1903.26342058 </i>
    <i name="e_fr_energy">   -125.50617334 </i>
    <i name="e_wo_entrp">   -125.50463227 </i>
    <i name="e_0_energy">   -125.50540281 </i>
   </energy>
  </scstep>
  <structure>
   <crystal>
    <varray name="basis" >
     <v>       4.19849116       2.42400000       0.00000000 </v>
     <v>      -4.19849116       2.42400000       0.00000000 </v>
     <v>       0.00000000       0.00000000      15.00000000 </v>
    </varray>
    <i name="volume">    305.31427698 </i>
    <varray name="rec_basis" >
     <v>       0.11909040       0.20627063       0.00000000 </v>
     <v>      -0.11909040       0.20627063       0.00000000 </v>
     <v>       0.00000000       0.00000000       0.06666667 </v>
    </varray>
   </crystal>
   <varray name="positions" >
    <v>       0.00416610       0.00270945       0.11981521 </v>
    <v>       0.35642936       0.00293869       0.09765106 </v>
    <v>       0.00410756       0.35487782       0.09765396 </v>
    <v>       0.65204896       0.65056947       0.09764063 </v>
    <v>       0.32648950       0.32496105       0.10030102 </v>
    <v>       0.68201798       0.00293327       0.10027531 </v>
    <v>       0.00403398       0.68044539       0.10026656 </v>
    <v>       0.00005896       0.49998820       0.33373758 </v>
    <v>       0.16676221       0.33361815       0.33376550 </v>
    <v>       0.99999929       0.99999687       0.33368650 </v>
    <v>       0.16685248       0.83323616       0.33376684 </v>
    <v>       0.50001836       0.50007661       0.33373893 </v>
    <v>       0.66666631       0.33333510       0.33371085 </v>
    <v>       0.49992947       0.99993960       0.33373736 </v>
    <v>       0.66638014       0.83314151       0.33376534 </v>
   </varray>
  </structure>
  <varray name="forces" >
   <v>      -0.00310367       0.00279301      -0.24762750 </v>
   <v>       0.05547005       0.04138865       0.08422331 </v>
   <v>      -0.06802987       0.02283449       0.08378891 </v>
   <v>       0.01348715      -0.06810452       0.08515741 </v>
   <v>       0.01494317       0.07578519      -0.01274293 </v>
   <v>      -0.07237303      -0.02690395      -0.01056988 </v>
   <v>       0.05930844      -0.04858657      -0.01001849 </v>
   <v>      -0.01852661      -0.00765192       0.00637849 </v>
   <v>       0.03916358      -0.04276641       0.01098777 </v>
   <v>      -0.00061677       0.00043422      -0.01303106 </v>
   <v>      -0.05600453      -0.01131676       0.01154784 </v>
   <v>       0.01551316      -0.01359279       0.00693095 </v>
   <v>       0.00067781      -0.00004089      -0.01217530 </v>
   <v>       0.00215498       0.01980669       0.00626087 </v>
   <v>       0.01793615       0.05592156       0.01088962 </v>
  </varray>
  <varray name="stress" >
   <v>      -7.56265654       0.00968595       0.00057834 </v>
   <v>       0.00968598      -7.55209928       0.02109941 </v>
   <v>       0.00057832       0.02109942      -2.04194033 </v>
  </varray>
  <energy>
   <i name="e_fr_energy">   -127.10922805 </i>
   <i name="e_wo_entrp">   -127.10768698 </i>
   <i name="e_0_energy">   -127.10845752 </i>
  </energy>
  <time name="totalsc">   50.78   51.15</time>
 </calculation>
 <calculation>
  <scstep>
   <time name="dav">    5.46    5.50</time>
   <time name="total">    5.75    5.81</time>
   <energy>
    <i name="alphaZ">     58.25896848 </i>
    <i name="ewald">   4778.76626889 </i>
    <i name="hartreedc">  -6535.64862477 </i>
    <i name="XCdc">    180.50274385 </i>
    <i name="pawpsdc">   5736.73998992 </i>
    <i name="pawaedc">  -5741.15012569 </i>
    <i name="eentropy">     -0.00154382 </i>
    <i name="bandstr">   -506.24173739 </i>
    <i name="atom">   1903.26342058 </i>
    <i name="e_fr_energy">   -125.51063994 </i>
    <i name="e_wo_entrp">   -125.50909612 </i>
    <i name="e_0_energy">   -125.50986803 </i>
   </energy>
  </scstep>
  <scstep>
   <time name="dav">   11.81   11.89</time>
   <time name="total">   12.11   12.19</time>
   <energy>
    <i name="e_fr_energy">   -125.51065416 </i>
    <i name="e_wo_entrp">   -125.50911092 </i>
    <i name="e_0_energy">   -125.50988254 </i>
   </energy>
  </scstep>
  <scstep>
   <time name="dav">    9.30    9.36</time>
   <time name="total">    9.58    9.66</time>
   <energy>
    <i name="e_fr_energy">   -125.51064114 </i>
    <i name="e_wo_entrp">   -125.50909821 </i>
    <i name="e_0_energy">   -125.50986968 </i>
   </energy>
  </scstep>
  <scstep>
   <time name="dav">   10.88   10.94</time>
   <time name="total">   11.16   11.24</time>
   <energy>
    <i name="e_fr_energy">   -125.51064152 </i>
    <i name="e_wo_entrp">   -125.50909852 </i>
    <i name="e_0_energy">   -125.50987002 </i>
   </energy>
  </scstep>
  <scstep>
   <time name="dav">    9.24    9.29</time>
   <time name="total">    9.27    9.33</time>
   <energy>
    <i name="alphaZ">     58.25896848 </i>
    <i name="ewald">   4778.76626889 </i>
    <i name="hartreedc">  -6535.64990307 </i>
    <i name="XCdc">    180.50274843 </i>
    <i name="pawpsdc">   5741.46967456 </i>
    <i name="pawaedc">  -5745.88148579 </i>
    <i name="eentropy">     -0.00154301 </i>
    <i name="bandstr">   -506.23879129 </i>
    <i name="atom">   1903.26342058 </i>
    <i name="e_fr_energy">   -125.51064222 </i>
    <i name="e_wo_entrp">   -125.50909921 </i>
    <i name="e_0_energy">   -125.50987072 </i>
   </energy>
  </scstep>
  <structure>
   <crystal>
    <varray name="basis" >
     <v>       4.19849116       2.42400000       0.00000000 </v>
     <v>      -4.19849116       2.42400000       0.00000000 </v>
     <v>       0.00000000       0.00000000      15.00000000 </v>
    </varray>
    <i name="volume">    305.31427698 </i>
    <varray name="rec_basis" >
     <v>       0.11909040       0.20627063       0.00000000 </v>
     <v>      -0.11909040       0.20627063       0.00000000 </v>
     <v>       0.00000000       0.00000000       0.06666667 </v>
    </varray>
   </crystal>
   <varray name="positions" >
    <v>       0.00418004       0.00276527       0.11889145 </v>
    <v>       0.35687079       0.00305568       0.09795846 </v>
    <v>       0.00390854       0.35517635       0.09795983 </v>
    <v>       0.65176511       0.65009791       0.09795137 </v>
    <v>       0.32659603       0.32484909       0.10026277 </v>
    <v>       0.68210903       0.00312703       0.10024481 </v>
    <v>       0.00385348       0.68035711       0.10023816 </v>
    <v>      -0.00008013       0.50001064       0.33375763 </v>
    <v>       0.16662166       0.33315200       0.33381004 </v>
    <v>       0.99999997       0.00000277       0.33363017 </v>
    <v>       0.16653944       0.83338411       0.33381354 </v>
    <v>       0.49998481       0.49990716       0.33376110 </v>
    <v>       0.66666941       0.33333224       0.33366680 </v>
    <v>       0.50008847       0.00008042       0.33375698 </v>
    <v>       0.66685401       0.83346956       0.33380954 </v>
   </varray>
  </structure>
  <varray name="forces" >
   <v>      -0.00032747      -0.00001753      -0.22821912 </v>
   <v>       0.04504054       0.02354661       0.04784616 </v>
   <v>      -0.04410424       0.02729016       0.04763141 </v>
   <v>      -0.00061445      -0.05018810       0.04828080 </v>
   <v>      -0.00589971       0.09231882       0.01756222 </v>
   <v>      -0.07552778      -0.05202161       0.01902690 </v>
   <v>       0.08112473      -0.04169078       0.01925687 </v>
   <v>       0.04981812       0.02207178       0.00697565 </v>
   <v>      -0.08826001       0.08503239       0.00021397 </v>
   <v>       0.00207156      -0.00008661       0.00892484 </v>
   <v>       0.11589994       0.03063471       0.00024278 </v>
   <v>      -0.04174744       0.03568387       0.00698396 </v>
   <v>      -0.00179841       0.00009407      -0.00179281 </v>
   <v>      -0.00447283      -0.05252148       0.00690339 </v>
   <v>      -0.03120256      -0.12014631       0.00016299 </v>
  </varray>
  <varray name="stress" >
   <v>      -7.19771410       0.01300111       0.00486256 </v>
   <v>       0.01300113      -7.17271497       0.01514273 </v>
   <v>       0.00486261       0.01514268      -1.98288305 </v>
  </varray>
  <energy>
   <i name="e_fr_energy">   -127.11358883 </i>
   <i name="e_wo_entrp">   -127.11204582 </i>
   <i name="e_0_energy">   -127.11281733 </i>
  </energy>
  <time name="totalsc">   52.56   52.96</time>
 </calculation>
 <calculation>
  <scstep>
   <time name="dav">    5.46    5.51</time>
   <time name="total">    5.75    5.81</time>
   <energy>
    <i name="alphaZ">     58.25896848 </i>
    <i name="ewald">   4778.91626483 </i>
    <i name="hartreedc">  -6535.48587557 </i>
    <i name="XCdc">    180.52398860 </i>
    <i name="pawpsdc">   5741.61368963 </i>
    <i name="pawaedc">  -5746.02551130 </i>
    <i name="eentropy">     -0.00154643 </i>
    <i name="bandstr">   -506.57649683 </i>
    <i name="atom">   1903.26342058 </i>
    <i name="e_fr_energy">   -125.51309801 </i>
    <i name="e_wo_entrp">   -125.51155159 </i>
    <i name="e_0_energy">   -125.51232480 </i>
   </energy>
  </scstep>
  <scstep>
   <time name="dav">   10.81   10.88</time>
   <time name="total">   11.10   11.19</time>
   <energy>
    <i name="e_fr_energy">   -125.51314082 </i>
    <i name="e_wo_entrp">   -125.51159518 </i>
    <i name="e_0_energy">   -125.51236800 </i>
   </energy>
  </scstep>
  <scstep>
   <time name="dav">    8.66    8.72</time>
   <time name="total">    8.95    9.02</time>
   <energy>
    <i name="e_fr_energy">   -125.51311677 </i>
    <i name="e_wo_entrp">   -125.51157155 </i>
    <i name="e_0_energy">   -125.51234416 </i>
   </energy>
  </scstep>
  <scstep>
   <time name="dav">   10.68   10.75</time>
   <time name="total">   10.97   11.05</time>
   <energy>
    <i name="e_fr_energy">   -125.51311717 </i>
    <i name="e_wo_entrp">   -125.51157182 </i>
    <i name="e_0_energy">   -125.51234450 </i>
   </energy>
  </scstep>
  <scstep>
   <time name="dav">    8.92    8.98</time>
   <time name="total">    9.21    9.28</time>
   <energy>
    <i name="e_fr_energy">   -125.51311855 </i>
    <i name="e_wo_entrp">   -125.51157320 </i>
    <i name="e_0_energy">   -125.51234588 </i>
   </energy>
  </scstep>
  <scstep>
   <time name="dav">    9.67    9.75</time>
   <time name="total">    9.71    9.78</time>
   <energy>
    <i name="alphaZ">     58.25896848 </i>
    <i name="ewald">   4778.91626483 </i>
    <i name="hartreedc">  -6535.47062032 </i>
    <i name="XCdc">    180.52387853 </i>
    <i name="pawpsdc">   5748.02828112 </i>
    <i name="pawaedc">  -5752.44235483 </i>
    <i name="eentropy">     -0.00154529 </i>
    <i name="bandstr">   -506.58941181 </i>
    <i name="atom">   1903.26342058 </i>
    <i name="e_fr_energy">   -125.51311872 </i>
    <i name="e_wo_entrp">   -125.51157343 </i>
    <i name="e_0_energy">   -125.51234608 </i>
   </energy>
  </scstep>
  <structure>
   <crystal>
    <varray name="basis" >
     <v>       4.19849116       2.42400000       0.00000000 </v>
     <v>      -4.19849116       2.42400000       0.00000000 </v>
     <v>       0.00000000       0.00000000      15.00000000 </v>
    </varray>
    <i name="volume">    305.31427698 </i>
    <varray name="rec_basis" >
     <v>       0.11909040       0.20627063       0.00000000 </v>
     <v>      -0.11909040       0.20627063       0.00000000 </v>
     <v>       0.00000000       0.00000000       0.06666667 </v>
    </varray>
   </crystal>
   <varray name="positions" >
    <v>       0.00419957       0.00284348       0.11759734 </v>
    <v>       0.35748920       0.00321956       0.09838911 </v>
    <v>       0.00362972       0.35559456       0.09838832 </v>
    <v>       0.65136746       0.64943728       0.09838670 </v>
    <v>       0.32674527       0.32469225       0.10020918 </v>
    <v>       0.68223658       0.00339849       0.10020208 </v>
    <v>       0.00360062       0.68023344       0.10019838 </v>
    <v>      -0.00027498       0.50004208       0.33378571 </v>
    <v>       0.16642477       0.33249895       0.33387244 </v>
    <v>       0.00000091       0.00001104       0.33355126 </v>
    <v>       0.16610089       0.83359138       0.33387896 </v>
    <v>       0.49993782       0.49966975       0.33379217 </v>
    <v>       0.66667376       0.33332823       0.33360508 </v>
    <v>       0.50031121       0.00027770       0.33378446 </v>
    <v>       0.66751787       0.83392913       0.33387147 </v>
   </varray>
  </structure>
  <varray name="forces" >
   <v>       0.00366219      -0.00412783      -0.20651837 </v>
   <v>       0.02626231      -0.00245236      -0.00125812 </v>
   <v>      -0.00803271       0.03028324      -0.00115568 </v>
   <v>      -0.01899515      -0.02112740      -0.00153582 </v>
   <v>      -0.03306338       0.11211039       0.05999183 </v>
   <v>      -0.07775117      -0.08381128       0.06050955 </v>
   <v>       0.10762504      -0.03160523       0.06031466 </v>
   <v>       0.14380111       0.06402279       0.00794425 </v>
   <v>      -0.26576472       0.26598393      -0.01459953 </v>
   <v>       0.00592221      -0.00082430       0.03868316 </v>
   <v>       0.35780599       0.08770573      -0.01531665 </v>
   <v>      -0.12132272       0.10296013       0.00717877 </v>
   <v>      -0.00529049       0.00028817       0.01241016 </v>
   <v>      -0.01266856      -0.15257202       0.00793137 </v>
   <v>      -0.10218995      -0.36683395      -0.01457959 </v>
  </varray>
  <varray name="stress" >
   <v>      -6.67115346       0.01748064       0.01040044 </v>
   <v>       0.01748065      -6.62920535       0.00787602 </v>
   <v>       0.01040047       0.00787604      -1.88691217 </v>
  </varray>
  <energy>
   <i name="e_fr_energy">   -127.11589011 </i>
   <i name="e_wo_entrp">   -127.11434482 </i>
   <i name="e_0_energy">   -127.11511746 </i>
  </energy>
  <time name="totalsc">   60.39   60.86</time>
 </calculation>
 <calculation>
  <scstep>
   <time name="dav">    5.46    5.50</time>
   <time name="total">    5.75    5.81</time>
   <energy>
    <i name="alphaZ">     58.25896848 </i>
    <i name="ewald">   4778.91746307 </i>
    <i name="hartreedc">  -6535.42409085 </i>
    <i name="XCdc">    180.52682290 </i>
    <i name="pawpsdc">   5748.09315400 </i>
    <i name="pawaedc">  -5752.50722792 </i>
    <i name="eentropy">     -0.00154562 </i>
    <i name="bandstr">   -506.64136403 </i>
    <i name="atom">   1903.26342058 </i>
    <i name="e_fr_energy">   -125.51439940 </i>
    <i name="e_wo_entrp">   -125.51285378 </i>
    <i name="e_0_energy">   -125.51362659 </i>
   </energy>
  </scstep>
  <scstep>
   <time name="dav">   10.86   10.94</time>
   <time name="total">   11.15   11.24</time>
   <energy>
    <i name="e_fr_energy">   -125.51440209 </i>
    <i name="e_wo_entrp">   -125.51285653 </i>
    <i name="e_0_energy">   -125.51362931 </i>
   </energy>
  </scstep>
  <scstep>
   <time name="dav">    7.99    8.05</time>
   <time name="total">    8.28    8.35</time>
   <energy>
    <i name="e_fr_energy">   -125.51440154 </i>
    <i name="e_wo_entrp">   -125.51285597 </i>
    <i name="e_0_energy">   -125.51362875 </i>
   </energy>
  </scstep>
  <scstep>
   <time name="dav">   10.33   10.40</time>
   <time name="total">   10.36   10.44</time>
   <energy>
    <i name="alphaZ">     58.25896848 </i>
    <i name="ewald">   4778.91746307 </i>
    <i name="hartreedc">  -6535.41052377 </i>
    <i name="XCdc">    180.52653968 </i>
    <i name="pawpsdc">   5748.99719070 </i>
    <i name="pawaedc">  -5753.41157462 </i>
    <i name="eentropy">     -0.00154554 </i>
    <i name="bandstr">   -506.65434037 </i>
    <i name="atom">   1903.26342058 </i>
    <i name="e_fr_energy">   -125.51440179 </i>
    <i name="e_wo_entrp">   -125.51285625 </i>
    <i name="e_0_energy">   -125.51362902 </i>
   </energy>
  </scstep>
  <structure>
   <crystal>
    <varray name="basis" >
     <v>       4.19849116       2.42400000       0.00000000 </v>
     <v>      -4.19849116       2.42400000       0.00000000 </v>
     <v>       0.00000000       0.00000000      15.00000000 </v>
    </varray>
    <i name="volume">    305.31427698 </i>
    <varray name="rec_basis" >
     <v>       0.11909040       0.20627063       0.00000000 </v>
     <v>      -0.11909040       0.20627063       0.00000000 </v>
     <v>       0.00000000       0.00000000       0.06666667 </v>
    </varray>
   </crystal>
   <varray name="positions" >
    <v>       0.00420192       0.00285370       0.11735226 </v>
    <v>       0.35759775       0.00323896       0.09846057 </v>
    <v>       0.00359479       0.35567972       0.09845943 </v>
    <v>       0.65128698       0.64932285       0.09845890 </v>
    <v>       0.32681164       0.32472474       0.10020893 </v>
    <v>       0.68220033       0.00342627       0.10020371 </v>
    <v>       0.00357219       0.68017101       0.10020047 </v>
    <v>      -0.00024174       0.50003883       0.33379153 </v>
    <v>       0.16644227       0.33257759       0.33388072 </v>
    <v>       0.00000223       0.00001052       0.33354371 </v>
    <v>       0.16615934       0.83357279       0.33388764 </v>
    <v>       0.49994469       0.49970751       0.33379837 </v>
    <v>       0.66667325       0.33332905       0.33359660 </v>
    <v>       0.50027687       0.00024565       0.33379018 </v>
    <v>       0.66743816       0.83386813       0.33387966 </v>
   </varray>
  </structure>
  <varray name="forces" >
   <v>       0.00413381      -0.00454099      -0.20327195 </v>
   <v>       0.02034882      -0.00763233      -0.00763026 </v>
   <v>       0.00005432       0.02848457      -0.00746800 </v>
   <v>      -0.02132639      -0.01357293      -0.00802145 </v>
   <v>      -0.03612776       0.10403737       0.06546126 </v>
   <v>      -0.06930858      -0.08216665       0.06579581 </v>
   <v>       0.10193966      -0.02533988       0.06554256 </v>
   <v>       0.12839615       0.05704051       0.00749323 </v>
   <v>      -0.24113828       0.24448070      -0.01604086 </v>
   <v>       0.00510471      -0.00097270       0.04200200 </v>
   <v>       0.32755978       0.07845424      -0.01685010 </v>
   <v>      -0.10857937       0.09212573       0.00662756 </v>
   <v>      -0.00460258       0.00042078       0.01487615 </v>
   <v>      -0.01151098      -0.13649508       0.00749023 </v>
   <v>      -0.09494331      -0.33432335      -0.01600618 </v>
  </varray>
  <varray name="stress" >
   <v>      -6.60635643       0.01443716       0.01096372 </v>
   <v>       0.01443718      -6.57205365       0.00722589 </v>
   <v>       0.01096373       0.00722585      -1.87033956 </v>
  </varray>
  <energy>
   <i name="e_fr_energy">   -127.11714832 </i>
   <i name="e_wo_entrp">   -127.11560278 </i>
   <i name="e_0_energy">   -127.11637555 </i>
  </energy>
  <time name="totalsc">   40.24   40.56</time>
 </calculation>
 <calculation>
  <scstep>
   <time name="dav">    5.46    5.51</time>
   <time name="total">    5.75    5.81</time>
   <energy>
    <i name="alphaZ">     58.25896848 </i>
    <i name="ewald">   4778.89937026 </i>
    <i name="hartreedc">  -6535.26736376 </i>
    <i name="XCdc">    180.53522899 </i>
    <i name="pawpsdc">   5749.01239322 </i>
    <i name="pawaedc">  -5753.42678420 </i>
    <i name="eentropy">     -0.00154648 </i>
    <i name="bandstr">   -506.79136056 </i>
    <i name="atom">   1903.26342058 </i>
    <i name="e_fr_energy">   -125.51767346 </i>
    <i name="e_wo_entrp">   -125.51612698 </i>
    <i name="e_0_energy">   -125.51690022 </i>
   </energy>
  </scstep>
  <scstep>
   <time name="dav">   10.08   10.14</time>
   <time name="total">   10.37   10.44</time>
   <energy>
    <i name="e_fr_energy">   -125.51769550 </i>
    <i name="e_wo_entrp">   -125.51614920 </i>
    <i name="e_0_energy">   -125.51692235 </i>
   </energy>
  </scstep>
  <scstep>
   <time name="dav">    7.92    7.98</time>
   <time name="total">    8.21    8.27</time>
   <energy>
    <i name="e_fr_energy">   -125.51768934 </i>
    <i name="e_wo_entrp">   -125.51614301 </i>
    <i name="e_0_energy">   -125.51691617 </i>
   </energy>
  </scstep>
  <scstep>
   <time name="dav">   11.03   11.10</time>
   <time name="total">   11.33   11.41</time>
   <energy>
    <i name="e_fr_energy">   -125.51768952 </i>
    <i name="e_wo_entrp">   -125.51614325 </i>
    <i name="e_0_energy">   -125.51691638 </i>
   </energy>
  </scstep>
  <scstep>
   <time name="dav">    7.98    8.04</time>
   <time name="total">    8.02    8.08</time>
   <energy>
    <i name="alphaZ">     58.25896848 </i>
    <i name="ewald">   4778.89937026 </i>
    <i name="hartreedc">  -6535.25498760 </i>
    <i name="XCdc">    180.53464818 </i>
    <i name="pawpsdc">   5751.65341713 </i>
    <i name="pawaedc">  -5756.06874474 </i>
    <i name="eentropy">     -0.00154623 </i>
    <i name="bandstr">   -506.80223594 </i>
    <i name="atom">   1903.26342058 </i>
    <i name="e_fr_energy">   -125.51768987 </i>
    <i name="e_wo_entrp">   -125.51614364 </i>
    <i name="e_0_energy">   -125.51691676 </i>
   </energy>
  </scstep>
  <structure>
   <crystal>
    <varray name="basis" >
     <v>       4.19849116       2.42400000       0.00000000 </v>
     <v>      -4.19849116       2.42400000       0.00000000 </v>
     <v>       0.00000000       0.00000000      15.00000000 </v>
    </varray>
    <i name="volume">    305.31427698 </i>
    <varray name="rec_basis" >
     <v>       0.11909040       0.20627063       0.00000000 </v>
     <v>      -0.11909040       0.20627063       0.00000000 </v>
     <v>       0.00000000       0.00000000       0.06666667 </v>
    </varray>
   </crystal>
   <varray name="positions" >
    <v>       0.00420897       0.00288437       0.11661703 </v>
    <v>       0.35792339       0.00329715       0.09867494 </v>
    <v>       0.00348999       0.35593520       0.09867277 </v>
    <v>       0.65104554       0.64897956       0.09867548 </v>
    <v>       0.32701072       0.32482222       0.10020815 </v>
    <v>       0.68209159       0.00350960       0.10020858 </v>
    <v>       0.00348689       0.67998373       0.10020673 </v>
    <v>      -0.00014201       0.50002906       0.33380898 </v>
    <v>       0.16649478       0.33281352       0.33390554 </v>
    <v>       0.00000618       0.00000896       0.33352108 </v>
    <v>       0.16633469       0.83351699       0.33391365 </v>
    <v>       0.49996533       0.49982079       0.33381698 </v>
    <v>       0.66667171       0.33333153       0.33357118 </v>
    <v>       0.50017385       0.00014953       0.33380733 </v>
    <v>       0.66719904       0.83368512       0.33390425 </v>
   </varray>
  </structure>
  <varray name="forces" >
   <v>       0.00557282      -0.00581159      -0.19451274 </v>
   <v>       0.00155667      -0.02347550      -0.02650867 </v>
   <v>       0.02509779       0.02237107      -0.02617380 </v>
   <v>      -0.02808547       0.01009668      -0.02723569 </v>
   <v>      -0.04491673       0.07908162       0.08194427 </v>
   <v>      -0.04347957      -0.07650309       0.08175117 </v>
   <v>       0.08396433      -0.00646342       0.08133753 </v>
   <v>       0.08251547       0.03639242       0.00612736 </v>
   <v>      -0.16780166       0.18070427      -0.02040429 </v>
   <v>       0.00268917      -0.00143254       0.05209286 </v>
   <v>       0.23771184       0.05080522      -0.02148943 </v>
   <v>      -0.07075325       0.05977709       0.00496200 </v>
   <v>      -0.00255717       0.00082604       0.02228290 </v>
   <v>      -0.00794740      -0.08872554       0.00615222 </v>
   <v>      -0.07356683      -0.23764272      -0.02032569 </v>
  </varray>
  <varray name="stress" >
   <v>      -6.40973944       0.00562383       0.01261933 </v>
   <v>       0.00562382      -6.39741650       0.00534986 </v>
   <v>       0.01261937       0.00534985      -1.84793134 </v>
  </varray>
  <energy>
   <i name="e_fr_energy">   -127.12035948 </i>
   <i name="e_wo_entrp">   -127.11881325 </i>
   <i name="e_0_energy">   -127.11958636 </i>
  </energy>
  <time name="totalsc">   48.36   48.74</time>
 </calculation>
 <calculation>
  <scstep>
   <time name="dav">    5.46    5.50</time>
   <time name="total">    5.75    5.80</time>
   <energy>
    <i name="alphaZ">     58.25896848 </i>
    <i name="ewald">   4778.76495284 </i>
    <i name="hartreedc">  -6534.89571129 </i>
    <i name="XCdc">    180.55042425 </i>
    <i name="pawpsdc">   5751.62217301 </i>
    <i name="pawaedc">  -5756.03750021 </i>
    <i name="eentropy">     -0.00154797 </i>
    <i name="bandstr">   -507.04691585 </i>
    <i name="atom">   1903.26342058 </i>
    <i name="e_fr_energy">   -125.52173617 </i>
    <i name="e_wo_entrp">   -125.52018820 </i>
    <i name="e_0_energy">   -125.52096218 </i>
   </energy>
  </scstep>
  <scstep>
   <time name="dav">   10.51   10.58</time>
   <time name="total">   10.80   10.87</time>
   <energy>
    <i name="e_fr_energy">   -125.52182508 </i>
    <i name="e_wo_entrp">   -125.52027750 </i>
    <i name="e_0_energy">   -125.52105129 </i>
   </energy>
  </scstep>
  <scstep>
   <time name="dav">    8.86    8.92</time>
   <time name="total">    9.15    9.22</time>
   <energy>
    <i name="e_fr_energy">   -125.52179768 </i>
    <i name="e_wo_entrp">   -125.52024999 </i>
    <i name="e_0_energy">   -125.52102384 </i>
   </energy>
  </scstep>
  <scstep>
   <time name="dav">   10.55   10.62</time>
   <time name="total">   10.84   10.93</time>
   <energy>
    <i name="e_fr_energy">   -125.52179798 </i>
    <i name="e_wo_entrp">   -125.52025042 </i>
    <i name="e_0_energy">   -125.52102420 </i>
   </energy>
  </scstep>
  <scstep>
   <time name="dav">    9.57    9.63</time>
   <time name="total">    9.85    9.93</time>
   <energy>
    <i name="e_fr_energy">   -125.52179899 </i>
    <i name="e_wo_entrp">   -125.52025149 </i>
    <i name="e_0_energy">   -125.52102524 </i>
   </energy>
  </scstep>
  <scstep>
   <time name="dav">    9.36    9.43</time>
   <time name="total">    9.39    9.46</time>
   <energy>
    <i name="alphaZ">     58.25896848 </i>
    <i name="ewald">   4778.76495284 </i>
    <i name="hartreedc">  -6534.87791311 </i>
    <i name="XCdc">    180.54938474 </i>
    <i name="pawpsdc">   5756.39370942 </i>
    <i name="pawaedc">  -5760.81078436 </i>
    <i name="eentropy">     -0.00154750 </i>
    <i name="bandstr">   -507.06199008 </i>
    <i name="atom">   1903.26342058 </i>
    <i name="e_fr_energy">   -125.52179899 </i>
    <i name="e_wo_entrp">   -125.52025149 </i>
    <i name="e_0_energy">   -125.52102524 </i>
   </energy>
  </scstep>
  <structure>
   <crystal>
    <varray name="basis" >
     <v>       4.19849116       2.42400000       0.00000000 </v>
     <v>      -4.19849116       2.42400000       0.00000000 </v>
     <v>       0.00000000       0.00000000      15.00000000 </v>
    </varray>
    <i name="volume">    305.31427698 </i>
    <varray name="rec_basis" >
     <v>       0.11909040       0.20627063       0.00000000 </v>
     <v>      -0.11909040       0.20627063       0.00000000 </v>
     <v>       0.00000000       0.00000000       0.06666667 </v>
    </varray>
   </crystal>
   <varray name="positions" >
    <v>       0.00422307       0.00294570       0.11514656 </v>
    <v>       0.35857468       0.00341354       0.09910367 </v>
    <v>       0.00328041       0.35644617       0.09909944 </v>
    <v>       0.65056267       0.64829298       0.09910865 </v>
    <v>       0.32740889       0.32501717       0.10020661 </v>
    <v>       0.68187410       0.00367626       0.10021833 </v>
    <v>       0.00331631       0.67960915       0.10021925 </v>
    <v>       0.00005746       0.50000954       0.33384388 </v>
    <v>       0.16659978       0.33328539       0.33395518 </v>
    <v>       0.00001408       0.00000584       0.33347581 </v>
    <v>       0.16668539       0.83340539       0.33396568 </v>
    <v>       0.50000660       0.50004734       0.33385420 </v>
    <v>       0.66666864       0.33333648       0.33352032 </v>
    <v>       0.49996782      -0.00004273       0.33384162 </v>
    <v>       0.66672078       0.83331910       0.33395343 </v>
   </varray>
  </structure>
  <varray name="forces" >
   <v>       0.00846973      -0.00840554      -0.18162761 </v>
   <v>      -0.03971682      -0.05657074      -0.06260741 </v>
   <v>       0.07799875       0.00752175      -0.06192683 </v>
   <v>      -0.04084395       0.06126204      -0.06399435 </v>
   <v>      -0.06154273       0.02614661       0.11484695 </v>
   <v>       0.01050106      -0.06289041       0.11361624 </v>
   <v>       0.04485571       0.03226435       0.11289695 </v>
   <v>      -0.00981159      -0.00498187       0.00339444 </v>
   <v>      -0.02093031       0.05387216      -0.02917696 </v>
   <v>      -0.00205853      -0.00231242       0.07213611 </v>
   <v>       0.05849969      -0.00494704      -0.03080606 </v>
   <v>       0.00530143      -0.00538414       0.00164118 </v>
   <v>       0.00150291       0.00162598       0.03714652 </v>
   <v>      -0.00064364       0.00729023       0.00347608 </v>
   <v>      -0.03158171      -0.04449096      -0.02901524 </v>
  </varray>
  <varray name="stress" >
   <v>      -6.02260739      -0.01159412       0.01538350 </v>
   <v>      -0.01159414      -6.05491483       0.00233182 </v>
   <v>       0.01538351       0.00233184      -1.81400380 </v>
  </varray>
  <energy>
   <i name="e_fr_energy">   -127.12430405 </i>
   <i name="e_wo_entrp">   -127.12275655 </i>
   <i name="e_0_energy">   -127.12353030 </i>
  </energy>
  <time name="totalsc">   60.56   61.02</time>
 </calculation>
 <calculation>
  <scstep>
   <time name="dav">    5.45    5.49</time>
   <time name="total">    5.74    5.79</time>
   <energy>
    <i name="alphaZ">     58.25896848 </i>
    <i name="ewald">   4778.09869843 </i>
    <i name="hartreedc">  -6533.86129362 </i>
    <i name="XCdc">    180.57433892 </i>
    <i name="pawpsdc">   5756.37521865 </i>
    <i name="pawaedc">  -5760.79229318 </i>
    <i name="eentropy">     -0.00155038 </i>
    <i name="bandstr">   -507.43566918 </i>
    <i name="atom">   1903.26342058 </i>
    <i name="e_fr_energy">   -125.52016129 </i>
    <i name="e_wo_entrp">   -125.51861091 </i>
    <i name="e_0_energy">   -125.51938610 </i>
   </energy>
  </scstep>
  <scstep>
   <time name="dav">   11.15   11.22</time>
   <time name="total">   11.44   11.53</time>
   <energy>
    <i name="e_fr_energy">   -125.52054590 </i>
    <i name="e_wo_entrp">   -125.51899635 </i>
    <i name="e_0_energy">   -125.51977113 </i>
   </energy>
  </scstep>
  <scstep>
   <time name="dav">    9.39    9.45</time>
   <time name="total">    9.68    9.76</time>
   <energy>
    <i name="e_fr_energy">   -125.52043183 </i>
    <i name="e_wo_entrp">   -125.51888205 </i>
    <i name="e_0_energy">   -125.51965694 </i>
   </energy>
  </scstep>
  <scstep>
   <time name="dav">   10.66   10.72</time>
   <time name="total">   10.95   11.02</time>
   <energy>
    <i name="e_fr_energy">   -125.52043604 </i>
    <i name="e_wo_entrp">   -125.51888640 </i>
    <i name="e_0_energy">   -125.51966122 </i>
   </energy>
  </scstep>
  <scstep>
   <time name="dav">    9.54    9.60</time>
   <time name="total">    9.83    9.90</time>
   <energy>
    <i name="e_fr_energy">   -125.52044066 </i>
    <i name="e_wo_entrp">   -125.51889117 </i>
    <i name="e_0_energy">   -125.51966592 </i>
   </energy>
  </scstep>
  <scstep>
   <time name="dav">   10.01   10.07</time>
   <time name="total">   10.04   10.10</time>
   <energy>
    <i name="alphaZ">     58.25896848 </i>
    <i name="ewald">   4778.09869843 </i>
    <i name="hartreedc">  -6533.84109490 </i>
    <i name="XCdc">    180.57292927 </i>
    <i name="pawpsdc">   5764.07431734 </i>
    <i name="pawaedc">  -5768.49438996 </i>
    <i name="eentropy">     -0.00154951 </i>
    <i name="bandstr">   -507.45173995 </i>
    <i name="atom">   1903.26342058 </i>
    <i name="e_fr_energy">   -125.52044020 </i>
    <i name="e_wo_entrp">   -125.51889069 </i>
    <i name="e_0_energy">   -125.51966545 </i>
   </energy>
  </scstep>
  <structure>
   <crystal>
    <varray name="basis" >
     <v>       4.19849116       2.42400000       0.00000000 </v>
     <v>      -4.19849116       2.42400000       0.00000000 </v>
     <v>       0.00000000       0.00000000      15.00000000 </v>
    </varray>
    <i name="volume">    305.31427698 </i>
    <varray name="rec_basis" >
     <v>       0.11909040       0.20627063       0.00000000 </v>
     <v>      -0.11909040       0.20627063       0.00000000 </v>
     <v>       0.00000000       0.00000000       0.06666667 </v>
    </varray>
   </crystal>
   <varray name="positions" >
    <v>       0.00425126       0.00306837       0.11220564 </v>
    <v>       0.35987725       0.00364630       0.09996115 </v>
    <v>       0.00286125       0.35746811       0.09995279 </v>
    <v>       0.64959692       0.64691982       0.09997499 </v>
    <v>       0.32820523       0.32540708       0.10020353 </v>
    <v>       0.68143911       0.00400959       0.10023783 </v>
    <v>       0.00297514       0.67886000       0.10024429 </v>
    <v>       0.00045638       0.49997049       0.33391369 </v>
    <v>       0.16680978       0.33422911       0.33405447 </v>
    <v>       0.00002987      -0.00000039       0.33338527 </v>
    <v>       0.16738679       0.83318220       0.33406975 </v>
    <v>       0.50008914       0.50050043       0.33392864 </v>
    <v>       0.66666250       0.33334639       0.33341862 </v>
    <v>       0.49955575      -0.00042724       0.33391022 </v>
    <v>       0.66576428       0.83258707       0.33405180 </v>
   </varray>
  </structure>
  <varray name="forces" >
   <v>       0.01439950      -0.01380816      -0.16993902 </v>
   <v>      -0.13879996      -0.13093482      -0.12903252 </v>
   <v>       0.19831505      -0.03288615      -0.12767027 </v>
   <v>      -0.06468266       0.18170289      -0.13165843 </v>
   <v>      -0.09318126      -0.09493505       0.17950216 </v>
   <v>       0.13149862      -0.02671979       0.17623184 </v>
   <v>      -0.04781932       0.11696627       0.17500177 </v>
   <v>      -0.19856607      -0.08741827      -0.00208514 </v>
[...]
       <r>     2.7499     0.8535    30.8971 </r>
       <r>     2.8566     0.5702    30.9580 </r>
       <r>     2.9634     1.1481    31.0805 </r>
       <r>     3.0701     1.5383    31.2447 </r>
       <r>     3.1768     1.2508    31.3782 </r>
       <r>     3.2835     1.2735    31.5141 </r>
       <r>     3.3903     1.2792    31.6506 </r>
       <r>     3.4970     1.4259    31.8028 </r>
       <r>     3.6037     2.1497    32.0323 </r>
       <r>     3.7105     2.8045    32.3316 </r>
       <r>     3.8172     3.1664    32.6696 </r>
       <r>     3.9239     2.8967    32.9787 </r>
       <r>     4.0307     3.0064    33.2996 </r>
       <r>     4.1374     3.1153    33.6321 </r>
       <r>     4.2441     3.3100    33.9854 </r>
       <r>     4.3508     3.0844    34.3146 </r>
       <r>     4.4576     2.9500    34.6294 </r>
       <r>     4.5643     2.7896    34.9272 </r>
       <r>     4.6710     2.7799    35.2239 </r>
       <r>     4.7778     3.4707    35.5943 </r>
       <r>     4.8845     3.0723    35.9222 </r>
       <r>     4.9912     2.7934    36.2203 </r>
       <r>     5.0980     3.2791    36.5703 </r>
       <r>     5.2047     3.4046    36.9337 </r>
       <r>     5.3114     3.0504    37.2592 </r>
       <r>     5.4182     2.7387    37.5516 </r>
       <r>     5.5249     2.5482    37.8235 </r>
       <r>     5.6316     3.4249    38.1891 </r>
       <r>     5.7383     3.2332    38.5341 </r>
       <r>     5.8451     2.9372    38.8476 </r>
       <r>     5.9518     2.4450    39.1086 </r>
       <r>     6.0585     2.5392    39.3796 </r>
       <r>     6.1653     1.9542    39.5882 </r>
       <r>     6.2720     2.4907    39.8540 </r>
       <r>     6.3787     2.9594    40.1699 </r>
       <r>     6.4855     3.0143    40.4916 </r>
       <r>     6.5922     3.1268    40.8253 </r>
       <r>     6.6989     3.6089    41.2105 </r>
       <r>     6.8056     4.1808    41.6567 </r>
       <r>     6.9124     3.2940    42.0083 </r>
       <r>     7.0191     3.2809    42.3584 </r>
       <r>     7.1258     3.4732    42.7291 </r>
       <r>     7.2326     2.6985    43.0172 </r>
       <r>     7.3393     2.4261    43.2761 </r>
       <r>     7.4460     2.6918    43.5634 </r>
       <r>     7.5528     2.9886    43.8824 </r>
       <r>     7.6595     3.1282    44.2162 </r>
       <r>     7.7662     3.9212    44.6348 </r>
       <r>     7.8730     4.3044    45.0942 </r>
       <r>     7.9797     3.2920    45.4455 </r>
       <r>     8.0864     4.1398    45.8874 </r>
       <r>     8.1931     4.2914    46.3454 </r>
       <r>     8.2999     4.1911    46.7927 </r>
       <r>     8.4066     4.9570    47.3218 </r>
       <r>     8.5133     3.2774    47.6716 </r>
       <r>     8.6201     1.5875    47.8410 </r>
       <r>     8.7268     0.6870    47.9143 </r>
       <r>     8.8335     0.4119    47.9583 </r>
       <r>     8.9403     0.3185    47.9923 </r>
       <r>     9.0470     0.0695    47.9997 </r>
       <r>     9.1537     0.0027    48.0000 </r>
       <r>     9.2604     0.0000    48.0000 </r>
       <r>     9.3672     0.0000    48.0000 </r>
       <r>     9.4739     0.0000    48.0000 </r>
       <r>     9.5806     0.0000    48.0000 </r>
       <r>     9.6874     0.0000    48.0000 </r>
       <r>     9.7941     0.0000    48.0000 </r>
       <r>     9.9008     0.0000    48.0000 </r>
       <r>    10.0076     0.0000    48.0000 </r>
       <r>    10.1143     0.0000    48.0000 </r>
       <r>    10.2210     0.0000    48.0000 </r>
       <r>    10.3278     0.0000    48.0000 </r>
      </set>
      <set comment="spin 2">
       <r>   -21.6914     0.0000     0.0000 </r>
       <r>   -21.5846     0.0000     0.0000 </r>
       <r>   -21.4779     0.0000     0.0000 </r>
       <r>   -21.3712     0.0000     0.0000 </r>
       <r>   -21.2645     0.0000     0.0000 </r>
       <r>   -21.1577     0.0000     0.0000 </r>
       <r>   -21.0510     0.0000     0.0000 </r>
       <r>   -20.9443     0.0000     0.0000 </r>
       <r>   -20.8375     0.0000     0.0000 </r>
       <r>   -20.7308     0.0000     0.0000 </r>
       <r>   -20.6241     0.0000     0.0000 </r>
       <r>   -20.5173     0.0000     0.0000 </r>
       <r>   -20.4106     0.0009     0.0001 </r>
       <r>   -20.3039     0.0346     0.0038 </r>
       <r>   -20.1972     0.2525     0.0307 </r>
       <r>   -20.0904     0.5313     0.0874 </r>
       <r>   -19.9837     0.5785     0.1492 </r>
       <r>   -19.8770     0.6318     0.2166 </r>
       <r>   -19.7702     0.5319     0.2734 </r>
       <r>   -19.6635     0.6889     0.3469 </r>
       <r>   -19.5568     0.5395     0.4045 </r>
       <r>   -19.4500     0.5447     0.4626 </r>
       <r>   -19.3433     0.7690     0.5447 </r>
       <r>   -19.2366     0.4877     0.5968 </r>
       <r>   -19.1298     0.4970     0.6498 </r>
       <r>   -19.0231     0.7827     0.7333 </r>
       <r>   -18.9164     0.6662     0.8044 </r>
       <r>   -18.8097     0.3786     0.8448 </r>
       <r>   -18.7029     0.5607     0.9047 </r>
       <r>   -18.5962     0.8847     0.9991 </r>
       <r>   -18.4895     0.5837     1.0614 </r>
       <r>   -18.3827     0.4854     1.1132 </r>
       <r>   -18.2760     0.3816     1.1539 </r>
       <r>   -18.1693     0.8494     1.2446 </r>
       <r>   -18.0625     0.8445     1.3347 </r>
       <r>   -17.9558     0.4515     1.3829 </r>
       <r>   -17.8491     0.4214     1.4279 </r>
       <r>   -17.7424     0.5254     1.4840 </r>
       <r>   -17.6356     0.7968     1.5690 </r>
       <r>   -17.5289     0.8652     1.6614 </r>
       <r>   -17.4222     0.7125     1.7374 </r>
       <r>   -17.3154     0.8365     1.8267 </r>
       <r>   -17.2087     1.3099     1.9665 </r>
       <r>   -17.1020     1.8705     2.1661 </r>
       <r>   -16.9952     2.0013     2.3797 </r>
       <r>   -16.8885     2.1919     2.6136 </r>
       <r>   -16.7818     2.6662     2.8982 </r>
       <r>   -16.6750     2.0793     3.1201 </r>
       <r>   -16.5683     0.6426     3.1887 </r>
       <r>   -16.4616     0.9336     3.2884 </r>
       <r>   -16.3549     1.0396     3.3993 </r>
       <r>   -16.2481     0.5835     3.4616 </r>
       <r>   -16.1414     0.5302     3.5182 </r>
       <r>   -16.0347     0.4962     3.5712 </r>
       <r>   -15.9279     0.4858     3.6230 </r>
       <r>   -15.8212     0.4720     3.6734 </r>
       <r>   -15.7145     1.0376     3.7841 </r>
       <r>   -15.6077     1.0283     3.8939 </r>
       <r>   -15.5010     0.5016     3.9474 </r>
       <r>   -15.3943     0.4947     4.0002 </r>
       <r>   -15.2876     0.4323     4.0463 </r>
       <r>   -15.1808     0.5938     4.1097 </r>
       <r>   -15.0741     0.7940     4.1945 </r>
       <r>   -14.9674     1.3800     4.3417 </r>
       <r>   -14.8606     2.1651     4.5728 </r>
       <r>   -14.7539     2.3450     4.8231 </r>
       <r>   -14.6472     2.2187     5.0599 </r>
       <r>   -14.5404     1.4070     5.2101 </r>
       <r>   -14.4337     0.9902     5.3158 </r>
       <r>   -14.3270     1.9111     5.5197 </r>
       <r>   -14.2202     1.9710     5.7301 </r>
       <r>   -14.1135     1.4175     5.8814 </r>
       <r>   -14.0068     1.3770     6.0284 </r>
       <r>   -13.9001     1.6022     6.1994 </r>
       <r>   -13.7933     2.5280     6.4692 </r>
       <r>   -13.6866     2.5377     6.7400 </r>
       <r>   -13.5799     2.3079     6.9863 </r>
       <r>   -13.4731     1.4024     7.1360 </r>
       <r>   -13.3664     0.8597     7.2278 </r>
       <r>   -13.2597     0.4206     7.2727 </r>
       <r>   -13.1529     0.5218     7.3284 </r>
       <r>   -13.0462     0.8795     7.4222 </r>
       <r>   -12.9395     0.8799     7.5161 </r>
       <r>   -12.8328     0.6178     7.5821 </r>
       <r>   -12.7260     0.8685     7.6748 </r>
       <r>   -12.6193     0.9016     7.7710 </r>
       <r>   -12.5126     0.7133     7.8471 </r>
       <r>   -12.4058     0.6878     7.9205 </r>
       <r>   -12.2991     0.4259     7.9660 </r>
       <r>   -12.1924     0.8207     8.0536 </r>
       <r>   -12.0856     1.0239     8.1629 </r>
       <r>   -11.9789     0.4264     8.2084 </r>
       <r>   -11.8722     0.4311     8.2544 </r>
       <r>   -11.7654     0.4347     8.3008 </r>
       <r>   -11.6587     0.7712     8.3831 </r>
       <r>   -11.5520     0.8598     8.4749 </r>
       <r>   -11.4453     0.4828     8.5264 </r>
       <r>   -11.3385     0.2407     8.5521 </r>
       <r>   -11.2318     0.6068     8.6169 </r>
       <r>   -11.1251     0.7442     8.6963 </r>
       <r>   -11.0183     0.6567     8.7664 </r>
       <r>   -10.9116     0.9917     8.8722 </r>
       <r>   -10.8049     0.7746     8.9549 </r>
       <r>   -10.6981     0.3166     8.9887 </r>
       <r>   -10.5914     1.0259     9.0982 </r>
       <r>   -10.4847     1.6316     9.2723 </r>
       <r>   -10.3780     1.9659     9.4822 </r>
       <r>   -10.2712     1.8961     9.6845 </r>
       <r>   -10.1645     1.8654     9.8836 </r>
       <r>   -10.0578     2.3159    10.1308 </r>
       <r>    -9.9510     2.3779    10.3846 </r>
       <r>    -9.8443     1.2391    10.5168 </r>
       <r>    -9.7376     0.8866    10.6115 </r>
       <r>    -9.6308     1.8170    10.8054 </r>
       <r>    -9.5241     1.9708    11.0158 </r>
       <r>    -9.4174     2.0964    11.2395 </r>
       <r>    -9.3106     1.9901    11.4519 </r>
       <r>    -9.2039     1.8017    11.6442 </r>
       <r>    -9.0972     1.3424    11.7875 </r>
       <r>    -8.9905     0.9832    11.8924 </r>
       <r>    -8.8837     1.9998    12.1058 </r>
       <r>    -8.7770     2.6285    12.3864 </r>
       <r>    -8.6703     1.9393    12.5934 </r>
       <r>    -8.5635     0.9753    12.6975 </r>
       <r>    -8.4568     1.4033    12.8472 </r>
       <r>    -8.3501     2.6674    13.1319 </r>
       <r>    -8.2433     2.3562    13.3834 </r>
       <r>    -8.1366     1.4958    13.5431 </r>
       <r>    -8.0299     2.0991    13.7671 </r>
       <r>    -7.9232     3.2060    14.1093 </r>
       <r>    -7.8164     3.1395    14.4444 </r>
       <r>    -7.7097     2.5560    14.7172 </r>
       <r>    -7.6030     1.2895    14.8548 </r>
       <r>    -7.4962     1.0806    14.9701 </r>
       <r>    -7.3895     2.4024    15.2265 </r>
       <r>    -7.2828     2.2978    15.4718 </r>
       <r>    -7.1760     1.4987    15.6317 </r>
       <r>    -7.0693     1.4220    15.7835 </r>
       <r>    -6.9626     2.1761    16.0158 </r>
       <r>    -6.8558     2.3186    16.2632 </r>
       <r>    -6.7491     2.5620    16.5367 </r>
       <r>    -6.6424     2.6578    16.8203 </r>
       <r>    -6.5357     2.3500    17.0712 </r>
       <r>    -6.4289     2.6110    17.3498 </r>
       <r>    -6.3222     2.1853    17.5831 </r>
       <r>    -6.2155     2.3844    17.8376 </r>
       <r>    -6.1087     3.3554    18.1957 </r>
       <r>    -6.0020     2.8922    18.5044 </r>
       <r>    -5.8953     4.0375    18.9353 </r>
       <r>    -5.7885     3.6578    19.3257 </r>
       <r>    -5.6818     2.0624    19.5458 </r>
       <r>    -5.5751     2.3696    19.7987 </r>
       <r>    -5.4684     4.2286    20.2500 </r>
       <r>    -5.3616     4.6059    20.7416 </r>
       <r>    -5.2549     2.9648    21.0581 </r>
       <r>    -5.1482     2.1332    21.2857 </r>
       <r>    -5.0414     1.3413    21.4289 </r>
       <r>    -4.9347     1.3635    21.5744 </r>
       <r>    -4.8280     1.8287    21.7696 </r>
       <r>    -4.7212     1.3969    21.9187 </r>
       <r>    -4.6145     1.0200    22.0276 </r>
       <r>    -4.5078     1.1784    22.1533 </r>
       <r>    -4.4010     2.1232    22.3799 </r>
       <r>    -4.2943     2.8422    22.6833 </r>
       <r>    -4.1876     2.3711    22.9363 </r>
       <r>    -4.0809     2.4177    23.1944 </r>
       <r>    -3.9741     2.8375    23.4972 </r>
       <r>    -3.8674     3.0480    23.8226 </r>
       <r>    -3.7607     2.3337    24.0716 </r>
       <r>    -3.6539     2.3217    24.3194 </r>
       <r>    -3.5472     2.6085    24.5978 </r>
       <r>    -3.4405     2.0192    24.8133 </r>
       <r>    -3.3337     1.7677    25.0020 </r>
       <r>    -3.2270     1.6713    25.1804 </r>
       <r>    -3.1203     2.2089    25.4161 </r>
       <r>    -3.0136     2.3360    25.6655 </r>
       <r>    -2.9068     1.5158    25.8273 </r>
       <r>    -2.8001     1.5194    25.9894 </r>
       <r>    -2.6934     0.9562    26.0915 </r>
       <r>    -2.5866     1.2958    26.2298 </r>
       <r>    -2.4799     2.5172    26.4984 </r>
       <r>    -2.3732     1.8271    26.6934 </r>
       <r>    -2.2664     0.5109    26.7480 </r>
       <r>    -2.1597     0.6056    26.8126 </r>
       <r>    -2.0530     1.3231    26.9538 </r>
       <r>    -1.9462     1.3147    27.0942 </r>
       <r>    -1.8395     1.4331    27.2471 </r>
       <r>    -1.7328     1.4788    27.4049 </r>
       <r>    -1.6261     1.2168    27.5348 </r>
       <r>    -1.5193     0.9128    27.6322 </r>
       <r>    -1.4126     0.5796    27.6941 </r>
       <r>    -1.3059     0.5051    27.7480 </r>
       <r>    -1.1991     0.5147    27.8029 </r>
       <r>    -1.0924     0.5083    27.8572 </r>
       <r>    -0.9857     0.7509    27.9373 </r>
       <r>    -0.8789     0.3696    27.9768 </r>
       <r>    -0.7722     0.0785    27.9852 </r>
       <r>    -0.6655     0.0086    27.9861 </r>
       <r>    -0.5588     0.0003    27.9861 </r>
       <r>    -0.4520     0.0104    27.9872 </r>
       <r>    -0.3453     0.0947    27.9973 </r>
       <r>    -0.2386     0.1280    28.0110 </r>
       <r>    -0.1318     0.0263    28.0138 </r>
       <r>    -0.0251     0.0007    28.0139 </r>
       <r>     0.0816     0.0000    28.0139 </r>
       <r>     0.1884     0.0065    28.0146 </r>
       <r>     0.2951     0.1407    28.0296 </r>
       <r>     0.4018     0.4263    28.0751 </r>
       <r>     0.5086     0.2060    28.0971 </r>
       <r>     0.6153     0.1548    28.1136 </r>
       <r>     0.7220     0.4278    28.1593 </r>
       <r>     0.8287     0.6687    28.2306 </r>
       <r>     0.9355     1.2415    28.3631 </r>
       <r>     1.0422     3.2661    28.7117 </r>
       <r>     1.1489     2.6428    28.9938 </r>
       <r>     1.2557     0.6467    29.0628 </r>
       <r>     1.3624     0.5314    29.1196 </r>
       <r>     1.4691     1.0708    29.2338 </r>
       <r>     1.5759     1.6167    29.4064 </r>
       <r>     1.6826     2.4610    29.6690 </r>
       <r>     1.7893     1.9764    29.8800 </r>
       <r>     1.8960     0.8347    29.9691 </r>
       <r>     2.0028     0.8582    30.0607 </r>
       <r>     2.1095     1.2783    30.1971 </r>
       <r>     2.2162     0.9370    30.2971 </r>
       <r>     2.3230     1.0539    30.4096 </r>
       <r>     2.4297     0.9401    30.5099 </r>
       <r>     2.5364     1.3417    30.6531 </r>
       <r>     2.6432     1.4324    30.8060 </r>
       <r>     2.7499     0.8535    30.8971 </r>
       <r>     2.8566     0.5703    30.9580 </r>
       <r>     2.9634     1.1482    31.0805 </r>
       <r>     3.0701     1.5383    31.2447 </r>
       <r>     3.1768     1.2508    31.3782 </r>
       <r>     3.2835     1.2736    31.5141 </r>
       <r>     3.3903     1.2791    31.6507 </r>
       <r>     3.4970     1.4259    31.8029 </r>
       <r>     3.6037     2.1498    32.0323 </r>
       <r>     3.7105     2.8044    32.3316 </r>
       <r>     3.8172     3.1665    32.6696 </r>
       <r>     3.9239     2.8966    32.9787 </r>
       <r>     4.0307     3.0065    33.2996 </r>
       <r>     4.1374     3.1152    33.6321 </r>
       <r>     4.2441     3.3100    33.9854 </r>
       <r>     4.3508     3.0844    34.3146 </r>
       <r>     4.4576     2.9501    34.6295 </r>
       <r>     4.5643     2.7898    34.9272 </r>
       <r>     4.6710     2.7803    35.2240 </r>
       <r>     4.7778     3.4711    35.5944 </r>
       <r>     4.8845     3.0720    35.9223 </r>
       <r>     4.9912     2.7936    36.2205 </r>
       <r>     5.0980     3.2793    36.5705 </r>
       <r>     5.2047     3.4047    36.9338 </r>
       <r>     5.3114     3.0502    37.2594 </r>
       <r>     5.4182     2.7381    37.5516 </r>
       <r>     5.5249     2.5483    37.8236 </r>
       <r>     5.6316     3.4252    38.1892 </r>
       <r>     5.7383     3.2340    38.5343 </r>
       <r>     5.8451     2.9362    38.8477 </r>
       <r>     5.9518     2.4447    39.1087 </r>
       <r>     6.0585     2.5393    39.3797 </r>
       <r>     6.1653     1.9547    39.5883 </r>
       <r>     6.2720     2.4915    39.8542 </r>
       <r>     6.3787     2.9587    40.1700 </r>
       <r>     6.4855     3.0142    40.4917 </r>
       <r>     6.5922     3.1269    40.8254 </r>
       <r>     6.6989     3.6097    41.2107 </r>
       <r>     6.8056     4.1811    41.6570 </r>
       <r>     6.9124     3.2939    42.0085 </r>
       <r>     7.0191     3.2814    42.3587 </r>
       <r>     7.1258     3.4723    42.7293 </r>
       <r>     7.2326     2.6976    43.0172 </r>
       <r>     7.3393     2.4263    43.2762 </r>
       <r>     7.4460     2.6935    43.5637 </r>
       <r>     7.5528     2.9876    43.8825 </r>
       <r>     7.6595     3.1278    44.2164 </r>
       <r>     7.7662     3.9215    44.6349 </r>
       <r>     7.8730     4.3041    45.0943 </r>
       <r>     7.9797     3.2928    45.4457 </r>
       <r>     8.0864     4.1406    45.8877 </r>
       <r>     8.1931     4.2903    46.3456 </r>
       <r>     8.2999     4.1910    46.7929 </r>
       <r>     8.4066     4.9572    47.3220 </r>
       <r>     8.5133     3.2764    47.6716 </r>
       <r>     8.6201     1.5871    47.8410 </r>
       <r>     8.7268     0.6869    47.9143 </r>
       <r>     8.8335     0.4119    47.9583 </r>
       <r>     8.9403     0.3185    47.9923 </r>
       <r>     9.0470     0.0695    47.9997 </r>
       <r>     9.1537     0.0027    48.0000 </r>
       <r>     9.2604     0.0000    48.0000 </r>
       <r>     9.3672     0.0000    48.0000 </r>
       <r>     9.4739     0.0000    48.0000 </r>
       <r>     9.5806     0.0000    48.0000 </r>
       <r>     9.6874     0.0000    48.0000 </r>
       <r>     9.7941     0.0000    48.0000 </r>
       <r>     9.9008     0.0000    48.0000 </r>
       <r>    10.0076     0.0000    48.0000 </r>
       <r>    10.1143     0.0000    48.0000 </r>
       <r>    10.2210     0.0000    48.0000 </r>
       <r>    10.3278     0.0000    48.0000 </r>
      </set>
     </set>
    </array>
   </total>
  </dos>
 </calculation>
 <structure name="finalpos" >
  <crystal>
   <varray name="basis" >
    <v>       4.19849116       2.42400000       0.00000000 </v>
    <v>      -4.19849116       2.42400000       0.00000000 </v>
    <v>       0.00000000       0.00000000      15.00000000 </v>
   </varray>
   <i name="volume">    305.31427698 </i>
   <varray name="rec_basis" >
    <v>       0.11909040       0.20627063       0.00000000 </v>
    <v>      -0.11909040       0.20627063       0.00000000 </v>
    <v>       0.00000000       0.00000000       0.06666667 </v>
   </varray>
  </crystal>
  <varray name="positions" >
   <v>       0.00402878       0.00267688       0.10125156 </v>
   <v>       0.35921623       0.00296261       0.10049054 </v>
   <v>       0.00374437       0.35758070       0.10049124 </v>
   <v>       0.64912305       0.64749460       0.10048796 </v>
   <v>       0.32773191       0.32610275       0.10050417 </v>
   <v>       0.68060111       0.00295947       0.10050465 </v>
   <v>       0.00374418       0.67896835       0.10050211 </v>
   <v>       0.00015916       0.50007831       0.33491440 </v>
   <v>       0.16680557       0.33346542       0.33494781 </v>
   <v>       0.00013866       0.00008546       0.33487668 </v>
   <v>       0.16684881       0.83341805       0.33495161 </v>
   <v>       0.50014830       0.50011685       0.33491705 </v>
   <v>       0.66680432       0.33342017       0.33481225 </v>
   <v>       0.50010816       0.00006466       0.33491274 </v>
   <v>       0.66675804       0.83337306       0.33494789 </v>
  </varray>
 </structure>
</modeling>
