   8   8   0   0
  0.4338553E+02  0.5169000E-09  0.5169000E-09  0.1500000E-08  0.5000000E-15
  1.000000000000000E-004
  CAR 
 BC3                                     
      9.52877013    -21.28552077  301     -3.47668245      1.00000000
    -21.286  0.0000E+00  0.0000E+00
    -21.183  0.0000E+00  0.0000E+00
    -21.080  0.0000E+00  0.0000E+00
    -20.977  0.0000E+00  0.0000E+00
    -20.875  0.0000E+00  0.0000E+00
    -20.772  0.0000E+00  0.0000E+00
    -20.669  0.0000E+00  0.0000E+00
    -20.567  0.0000E+00  0.0000E+00
    -20.464  0.1575E-18  0.1617E-19
    -20.361  0.1489E-13  0.1530E-14
    -20.258  0.1445E-09  0.1484E-10
    -20.156  0.1914E-06  0.1967E-07
    -20.053  0.3712E-04  0.3833E-05
    -19.950  0.1199E-02  0.1270E-03
    -19.848  0.8108E-02  0.9597E-03
    -19.745  0.1714E-01  0.2720E-02
    -19.642  0.2080E-01  0.4856E-02
    -19.539  0.2343E-01  0.7263E-02
    -19.437  0.2879E-01  0.1022E-01
    -19.334  0.3994E-01  0.1432E-01
    -19.231  0.3925E-01  0.1835E-01
    -19.129  0.1456E-01  0.1985E-01
    -19.026  0.1437E-02  0.2000E-01
    -18.923  0.2907E-04  0.2000E-01
    -18.820  0.9799E-07  0.2000E-01
    -18.718  0.4833E-10  0.2000E-01
    -18.615  0.3248E-14  0.2000E-01
    -18.512  0.0000E+00  0.2000E-01
    -18.410  0.0000E+00  0.2000E-01
    -18.307  0.0000E+00  0.2000E-01
    -18.204  0.6748E-19  0.2000E-01
    -18.101  0.8406E-14  0.2000E-01
    -17.999  0.9804E-10  0.2000E-01
    -17.896  0.1555E-06  0.2000E-01
    -17.793  0.3585E-04  0.2000E-01
    -17.691  0.1359E-02  0.2014E-01
    -17.588  0.1058E-01  0.2123E-01
    -17.485  0.2527E-01  0.2383E-01
    -17.382  0.3226E-01  0.2714E-01
    -17.280  0.2730E-01  0.2994E-01
    -17.177  0.1971E-01  0.3197E-01
    -17.074  0.1846E-01  0.3386E-01
    -16.972  0.1912E-01  0.3583E-01
    -16.869  0.2010E-01  0.3789E-01
    -16.766  0.2148E-01  0.4010E-01
    -16.663  0.2361E-01  0.4252E-01
    -16.561  0.2774E-01  0.4537E-01
    -16.458  0.3445E-01  0.4891E-01
    -16.355  0.3396E-01  0.5240E-01
    -16.253  0.2597E-01  0.5507E-01
    -16.150  0.2055E-01  0.5718E-01
    -16.047  0.1644E-01  0.5887E-01
    -15.944  0.9092E-02  0.5980E-01
    -15.842  0.1859E-02  0.5999E-01
    -15.739  0.8765E-04  0.6000E-01
    -15.636  0.7252E-06  0.6000E-01
    -15.534  0.9044E-09  0.6000E-01
    -15.431  0.1566E-12  0.6000E-01
    -15.328  0.3487E-17  0.6000E-01
    -15.225  0.0000E+00  0.6000E-01
    -15.123  0.0000E+00  0.6000E-01
    -15.020  0.0000E+00  0.6000E-01
    -14.917  0.0000E+00  0.6000E-01
    -14.815  0.0000E+00  0.6000E-01
    -14.712  0.1033E-15  0.6000E-01
    -14.609  0.2553E-11  0.6000E-01
    -14.506  0.8535E-08  0.6000E-01
    -14.404  0.4060E-05  0.6000E-01
    -14.301  0.3008E-03  0.6003E-01
    -14.198  0.4124E-02  0.6045E-01
    -14.096  0.1427E-01  0.6192E-01
    -13.993  0.2103E-01  0.6408E-01
    -13.890  0.2429E-01  0.6658E-01
    -13.787  0.2998E-01  0.6965E-01
    -13.685  0.3534E-01  0.7328E-01
    -13.582  0.2744E-01  0.7610E-01
    -13.479  0.1855E-01  0.7801E-01
    -13.377  0.1545E-01  0.7960E-01
    -13.274  0.1455E-01  0.8109E-01
    -13.171  0.1382E-01  0.8251E-01
    -13.068  0.1325E-01  0.8387E-01
    -12.966  0.1281E-01  0.8519E-01
    -12.863  0.1274E-01  0.8650E-01
    -12.760  0.1435E-01  0.8797E-01
    -12.658  0.1856E-01  0.8988E-01
    -12.555  0.2008E-01  0.9194E-01
    -12.452  0.1870E-01  0.9386E-01
    -12.349  0.1751E-01  0.9566E-01
    -12.247  0.1609E-01  0.9731E-01
    -12.144  0.1513E-01  0.9886E-01
    -12.041  0.1420E-01  0.1003E+00
    -11.939  0.1320E-01  0.1017E+00
    -11.836  0.1003E-01  0.1027E+00
    -11.733  0.5922E-02  0.1033E+00
    -11.630  0.4433E-02  0.1038E+00
    -11.528  0.4761E-02  0.1043E+00
    -11.425  0.4379E-02  0.1047E+00
    -11.322  0.5498E-02  0.1053E+00
    -11.220  0.5580E-02  0.1058E+00
    -11.117  0.8520E-02  0.1067E+00
    -11.014  0.8095E-02  0.1076E+00
    -10.911  0.1010E-01  0.1086E+00
    -10.809  0.1327E-01  0.1100E+00
    -10.706  0.1459E-01  0.1115E+00
    -10.603  0.1757E-01  0.1133E+00
    -10.501  0.1663E-01  0.1150E+00
    -10.398  0.2026E-01  0.1170E+00
    -10.295  0.2196E-01  0.1193E+00
    -10.192  0.2270E-01  0.1216E+00
    -10.090  0.1676E-01  0.1234E+00
     -9.987  0.1332E-01  0.1247E+00
     -9.884  0.1638E-01  0.1264E+00
     -9.782  0.2653E-01  0.1291E+00
     -9.679  0.2670E-01  0.1319E+00
     -9.576  0.2229E-01  0.1342E+00
     -9.473  0.2085E-01  0.1363E+00
     -9.371  0.1838E-01  0.1382E+00
     -9.268  0.1894E-01  0.1401E+00
     -9.165  0.1968E-01  0.1422E+00
     -9.063  0.2168E-01  0.1444E+00
     -8.960  0.2446E-01  0.1469E+00
     -8.857  0.2629E-01  0.1496E+00
     -8.754  0.2466E-01  0.1521E+00
     -8.652  0.2671E-01  0.1549E+00
     -8.549  0.2981E-01  0.1579E+00
     -8.446  0.2831E-01  0.1608E+00
     -8.344  0.2325E-01  0.1632E+00
     -8.241  0.2061E-01  0.1654E+00
     -8.138  0.1999E-01  0.1674E+00
     -8.035  0.2467E-01  0.1699E+00
     -7.933  0.3163E-01  0.1732E+00
     -7.830  0.3985E-01  0.1773E+00
     -7.727  0.4417E-01  0.1818E+00
     -7.625  0.4335E-01  0.1863E+00
     -7.522  0.3898E-01  0.1903E+00
     -7.419  0.2588E-01  0.1929E+00
     -7.316  0.1736E-01  0.1947E+00
     -7.214  0.2003E-01  0.1968E+00
     -7.111  0.2089E-01  0.1989E+00
     -7.008  0.1754E-01  0.2007E+00
     -6.906  0.1616E-01  0.2024E+00
     -6.803  0.1626E-01  0.2041E+00
     -6.700  0.1853E-01  0.2060E+00
     -6.597  0.2687E-01  0.2087E+00
     -6.495  0.4206E-01  0.2130E+00
     -6.392  0.6797E-01  0.2200E+00
     -6.289  0.7947E-01  0.2282E+00
     -6.187  0.5809E-01  0.2341E+00
     -6.084  0.3947E-01  0.2382E+00
     -5.981  0.2700E-01  0.2410E+00
     -5.878  0.2330E-01  0.2434E+00
     -5.776  0.2367E-01  0.2458E+00
     -5.673  0.2431E-01  0.2483E+00
     -5.570  0.2526E-01  0.2509E+00
     -5.468  0.2654E-01  0.2536E+00
     -5.365  0.2768E-01  0.2565E+00
     -5.262  0.2989E-01  0.2595E+00
     -5.159  0.3241E-01  0.2629E+00
     -5.057  0.3718E-01  0.2667E+00
     -4.954  0.4171E-01  0.2710E+00
     -4.851  0.4357E-01  0.2754E+00
     -4.749  0.4721E-01  0.2803E+00
     -4.646  0.4636E-01  0.2850E+00
     -4.543  0.3942E-01  0.2891E+00
     -4.440  0.2809E-01  0.2920E+00
     -4.338  0.1610E-01  0.2936E+00
     -4.235  0.1267E-01  0.2949E+00
     -4.132  0.1208E-01  0.2962E+00
     -4.030  0.1163E-01  0.2974E+00
     -3.927  0.1117E-01  0.2985E+00
     -3.824  0.9442E-02  0.2995E+00
     -3.721  0.4337E-02  0.2999E+00
     -3.619  0.6009E-03  0.3000E+00
     -3.516  0.1712E-04  0.3000E+00
     -3.413  0.4233E-06  0.3000E+00
     -3.311  0.4961E-04  0.3000E+00
     -3.208  0.1256E-02  0.3001E+00
     -3.105  0.6989E-02  0.3009E+00
     -3.002  0.1334E-01  0.3022E+00
     -2.900  0.1592E-01  0.3039E+00
     -2.797  0.1863E-01  0.3058E+00
     -2.694  0.2282E-01  0.3081E+00
     -2.592  0.2724E-01  0.3109E+00
     -2.489  0.2241E-01  0.3132E+00
     -2.386  0.1616E-01  0.3149E+00
     -2.283  0.1244E-01  0.3162E+00
     -2.181  0.1018E-01  0.3172E+00
     -2.078  0.8222E-02  0.3180E+00
     -1.975  0.6562E-02  0.3187E+00
     -1.873  0.4297E-02  0.3192E+00
     -1.770  0.3113E-02  0.3195E+00
     -1.667  0.2192E-02  0.3197E+00
     -1.564  0.1595E-02  0.3199E+00
     -1.462  0.8988E-03  0.3200E+00
     -1.359  0.4322E-03  0.3200E+00
     -1.256  0.5409E-03  0.3201E+00
     -1.154  0.1026E-02  0.3202E+00
     -1.051  0.1840E-02  0.3204E+00
     -0.948  0.2334E-02  0.3206E+00
     -0.845  0.3405E-02  0.3209E+00
     -0.743  0.3846E-02  0.3213E+00
     -0.640  0.5252E-02  0.3219E+00
     -0.537  0.5807E-02  0.3225E+00
     -0.435  0.7768E-02  0.3233E+00
     -0.332  0.9212E-02  0.3242E+00
     -0.229  0.1586E-01  0.3258E+00
     -0.126  0.2726E-01  0.3286E+00
     -0.024  0.2964E-01  0.3317E+00
      0.079  0.2173E-01  0.3339E+00
      0.182  0.1686E-01  0.3357E+00
      0.284  0.1484E-01  0.3372E+00
      0.387  0.1349E-01  0.3386E+00
      0.490  0.1450E-01  0.3401E+00
      0.593  0.1519E-01  0.3416E+00
      0.695  0.1353E-01  0.3430E+00
      0.798  0.1140E-01  0.3442E+00
      0.901  0.1383E-01  0.3456E+00
      1.003  0.1761E-01  0.3474E+00
      1.106  0.1886E-01  0.3493E+00
      1.209  0.1944E-01  0.3513E+00
      1.312  0.2001E-01  0.3534E+00
      1.414  0.2113E-01  0.3556E+00
      1.517  0.2287E-01  0.3579E+00
      1.620  0.2407E-01  0.3604E+00
      1.722  0.2391E-01  0.3628E+00
      1.825  0.2395E-01  0.3653E+00
      1.928  0.2784E-01  0.3682E+00
      2.031  0.2990E-01  0.3712E+00
      2.133  0.3037E-01  0.3744E+00
      2.236  0.3159E-01  0.3776E+00
      2.339  0.3676E-01  0.3814E+00
      2.441  0.3857E-01  0.3853E+00
      2.544  0.3873E-01  0.3893E+00
      2.647  0.3857E-01  0.3933E+00
      2.750  0.3876E-01  0.3973E+00
      2.852  0.3782E-01  0.4011E+00
      2.955  0.3876E-01  0.4051E+00
      3.058  0.3791E-01  0.4090E+00
      3.160  0.3787E-01  0.4129E+00
      3.263  0.3846E-01  0.4169E+00
      3.366  0.3742E-01  0.4207E+00
      3.469  0.3855E-01  0.4247E+00
      3.571  0.3737E-01  0.4285E+00
      3.674  0.3810E-01  0.4324E+00
      3.777  0.3812E-01  0.4363E+00
      3.879  0.3829E-01  0.4403E+00
      3.982  0.4166E-01  0.4445E+00
      4.085  0.3771E-01  0.4484E+00
      4.188  0.3360E-01  0.4519E+00
      4.290  0.3266E-01  0.4552E+00
      4.393  0.4270E-01  0.4596E+00
      4.496  0.5023E-01  0.4648E+00
      4.598  0.4715E-01  0.4696E+00
      4.701  0.4781E-01  0.4745E+00
      4.804  0.5060E-01  0.4797E+00
      4.907  0.5379E-01  0.4852E+00
      5.009  0.5880E-01  0.4913E+00
      5.112  0.6231E-01  0.4977E+00
      5.215  0.6488E-01  0.5043E+00
      5.317  0.7145E-01  0.5117E+00
      5.420  0.7542E-01  0.5194E+00
      5.523  0.8122E-01  0.5278E+00
      5.626  0.7434E-01  0.5354E+00
      5.728  0.6085E-01  0.5417E+00
      5.831  0.6597E-01  0.5484E+00
      5.934  0.7970E-01  0.5566E+00
      6.036  0.7836E-01  0.5647E+00
      6.139  0.7102E-01  0.5720E+00
      6.242  0.6807E-01  0.5790E+00
      6.345  0.7374E-01  0.5865E+00
      6.447  0.7315E-01  0.5940E+00
      6.550  0.7067E-01  0.6013E+00
      6.653  0.6120E-01  0.6076E+00
      6.755  0.6344E-01  0.6141E+00
      6.858  0.7014E-01  0.6213E+00
      6.961  0.6142E-01  0.6276E+00
      7.064  0.4502E-01  0.6322E+00
      7.166  0.2688E-01  0.6350E+00
      7.269  0.1388E-01  0.6364E+00
      7.372  0.1088E-01  0.6375E+00
      7.474  0.7474E-02  0.6383E+00
      7.577  0.4353E-02  0.6388E+00
      7.680  0.3214E-02  0.6391E+00
      7.783  0.2649E-02  0.6394E+00
      7.885  0.2791E-02  0.6396E+00
      7.988  0.1864E-02  0.6398E+00
      8.091  0.9297E-03  0.6399E+00
      8.193  0.5522E-03  0.6400E+00
      8.296  0.1054E-03  0.6400E+00
      8.399  0.3991E-05  0.6400E+00
      8.502  0.2422E-07  0.6400E+00
      8.604  0.2087E-10  0.6400E+00
      8.707  0.2402E-14  0.6400E+00
      8.810  0.2249E-19  0.6400E+00
      8.912  0.0000E+00  0.6400E+00
      9.015  0.0000E+00  0.6400E+00
      9.118  0.0000E+00  0.6400E+00
      9.221  0.0000E+00  0.6400E+00
      9.323  0.0000E+00  0.6400E+00
      9.426  0.0000E+00  0.6400E+00
      9.529  0.0000E+00  0.6400E+00
