    8    8  100    1
  0.4338553E+02  0.5169000E-09  0.5169000E-09  0.1500000E-08  0.5000000E-15
  1.000000000000000E-004
  CAR 
 BC3                                     
     30    481     32
 
  0.0000000E+00  0.0000000E+00  0.0000000E+00  0.1040583E-02
    1      -19.884871   1.000000
    2      -15.983292   1.000000
    3      -15.983082   1.000000
    4      -13.641901   1.000000
    5      -13.641789   1.000000
    6      -12.573380   1.000000
    7      -11.250052   1.000000
    8       -8.688756   1.000000
    9       -8.456750   1.000000
   10       -6.304519   1.000000
   11       -6.304100   1.000000
   12       -4.480843   1.000000
   13       -4.480715   1.000000
   14       -3.792193   0.999996
   15       -3.791652   0.999996
   16       -1.963918   0.000000
   17       -0.227850   0.000000
   18       -0.227728   0.000000
   19        0.431618   0.000000
   20        0.839323   0.000000
   21        1.842004   0.000000
   22        2.240935   0.000000
   23        4.224238   0.000000
   24        4.843394   0.000000
   25        5.008704   0.000000
   26        5.009237   0.000000
   27        6.295841   0.000000
   28        6.769981   0.000000
   29        6.770719   0.000000
   30        7.873617   0.000000
   31        8.049108   0.000000
   32        8.128121   0.000000
 
  0.3225806E-01  0.0000000E+00  0.0000000E+00  0.2081165E-02
    1      -19.880774   1.000000
    2      -16.004144   1.000000
    3      -15.989915   1.000000
    4      -13.647403   1.000000
    5      -13.626630   1.000000
    6      -12.553105   1.000000
    7      -11.225252   1.000000
    8       -8.682558   1.000000
    9       -8.465224   1.000000
   10       -6.323177   1.000000
   11       -6.307981   1.000000
   12       -4.499768   1.000000
   13       -4.483976   1.000000
   14       -3.813808   0.999999
   15       -3.802253   0.999998
   16       -2.000654   0.000000
   17       -0.218601   0.000000
   18       -0.173497   0.000000
   19        0.448638   0.000000
   20        0.847096   0.000000
   21        1.850418   0.000000
   22        2.248748   0.000000
   23        4.231911   0.000000
   24        4.851789   0.000000
   25        5.020322   0.000000
   26        5.033645   0.000000
   27        6.303817   0.000000
   28        6.772884   0.000000
   29        6.794341   0.000000
   30        7.648617   0.000000
   31        7.878546   0.000000
   32        7.897485   0.000000
 
  0.6451613E-01  0.0000000E+00  0.0000000E+00  0.2081165E-02
    1      -19.868521   1.000000
    2      -16.064824   1.000000
    3      -16.009414   1.000000
    4      -13.664713   1.000000
    5      -13.581827   1.000000
    6      -12.492203   1.000000
    7      -11.152504   1.000000
    8       -8.663982   1.000000
    9       -8.491022   1.000000
   10       -6.378949   1.000000
   11       -6.318453   1.000000
   12       -4.556368   1.000000
   13       -4.493424   1.000000
   14       -3.878244   1.000000
   15       -3.833483   1.000000
   16       -2.096802   0.000000
   17       -0.191799   0.000000
   18       -0.028199   0.000000
   19        0.502222   0.000000
   20        0.870399   0.000000
   21        1.875736   0.000000
   22        2.272175   0.000000
   23        4.254928   0.000000
   24        4.876299   0.000000
   25        5.053270   0.000000
   26        5.107351   0.000000
   27        6.324097   0.000000
   28        6.774773   0.000000
   29        6.865908   0.000000
   30        7.272232   0.000000
   31        7.700149   0.000000
   32        7.713777   0.000000
 
  0.9677419E-01 -0.6938894E-17  0.0000000E+00  0.2081165E-02
    1      -19.848258   1.000000
    2      -16.159337   1.000000
    3      -16.039887   1.000000
    4      -13.694766   1.000000
    5      -13.509401   1.000000
    6      -12.391491   1.000000
    7      -11.036014   1.000000
    8       -8.633077   1.000000
    9       -8.534921   1.000000
   10       -6.469901   1.000000
   11       -6.333188   1.000000
   12       -4.648249   1.000000
   13       -4.508461   1.000000
   14       -3.984116   1.000000
   15       -3.884376   1.000000
   16       -2.224922   0.000000
   17       -0.147927   0.000000
   18        0.167367   0.000000
   19        0.602994   0.000000
   20        0.909193   0.000000
   21        1.918221   0.000000
   22        2.311195   0.000000
   23        4.293280   0.000000
   24        4.915459   0.000000
   25        5.105054   0.000000
   26        5.228503   0.000000
   27        6.333490   0.000000
   28        6.737678   0.000000
   29        6.965419   0.000000
   30        6.980672   0.000000
   31        7.517291   0.000000
   32        7.559433   0.000000
 
  0.1290323E+00  0.0000000E+00  0.0000000E+00  0.2081165E-02
    1      -19.820238   1.000000
    2      -16.279991   1.000000
    3      -16.078813   1.000000
    4      -13.736703   1.000000
    5      -13.412248   1.000000
    6      -12.254238   1.000000
    7      -10.881246   1.000000
    8       -8.598066   1.000000
    9       -8.590012   1.000000
   10       -6.593390   1.000000
   11       -6.348699   1.000000
   12       -4.771755   1.000000
   13       -4.528338   1.000000
   14       -4.128851   1.000000
   15       -3.953339   1.000000
   16       -2.362570   0.000000
   17       -0.089077   0.000000
   18        0.362431   0.000000
   19        0.773606   0.000000
   20        0.963425   0.000000
   21        1.978456   0.000000
   22        2.365778   0.000000
   23        4.346919   0.000000
   24        4.967826   0.000000
   25        5.170871   0.000000
   26        5.394608   0.000000
   27        6.214922   0.000000
   28        6.631515   0.000000
   29        6.884016   0.000000
   30        7.117357   0.000000
   31        7.227730   0.000000
   32        7.425570   0.000000
 
  0.1612903E+00  0.1387779E-16  0.0000000E+00  0.2081165E-02
    1      -19.784841   1.000000
    2      -16.418981   1.000000
    3      -16.123407   1.000000
    4      -13.787641   1.000000
    5      -13.293691   1.000000
    6      -12.085903   1.000000
    7      -10.693723   1.000000
    8       -8.681392   1.000000
    9       -8.534926   1.000000
   10       -6.745961   1.000000
   11       -6.361134   1.000000
   12       -4.922168   1.000000
   13       -4.551975   1.000000
   14       -4.309432   1.000000
   15       -4.038058   1.000000
   16       -2.496451   0.000000
   17       -0.016981   0.000000
   18        0.525734   0.000000
   19        1.024667   0.000000
   20        1.033031   0.000000
   21        2.057709   0.000000
   22        2.435887   0.000000
   23        4.415802   0.000000
   24        5.032152   0.000000
   25        5.244577   0.000000
   26        5.602224   0.000000
   27        5.910266   0.000000
   28        6.644518   0.000000
   29        6.838713   0.000000
   30        6.880906   0.000000
   31        7.117900   0.000000
   32        7.312695   0.000000
 
  0.1935484E+00 -0.1387779E-16  0.0000000E+00  0.2081165E-02
    1      -19.742617   1.000000
    2      -16.569287   1.000000
    3      -16.170986   1.000000
    4      -13.843819   1.000000
    5      -13.157191   1.000000
    6      -11.892630   1.000000
    7      -10.478515   1.000000
    8       -8.785065   1.000000
    9       -8.468193   1.000000
   10       -6.923556   1.000000
   11       -6.366848   1.000000
   12       -5.093952   1.000000
   13       -4.578214   1.000000
   14       -4.522373   1.000000
   15       -4.135961   1.000000
   16       -2.620123   0.000000
   17        0.065554   0.000000
   18        0.666992   0.000000
   19        1.117946   0.000000
   20        1.329355   0.000000
   21        2.158862   0.000000
   22        2.521488   0.000000
   23        4.499791   0.000000
   24        5.106927   0.000000
   25        5.317920   0.000000
   26        5.562476   0.000000
   27        5.846686   0.000000
   28        6.461883   0.000000
   29        6.685938   0.000000
   30        6.856928   0.000000
   31        6.995664   0.000000
   32        7.087305   0.000000
 
  0.2258065E+00  0.1387779E-16  0.0000000E+00  0.2081165E-02
    1      -19.694314   1.000000
    2      -16.724939   1.000000
    3      -16.219176   1.000000
    4      -13.901647   1.000000
    5      -13.006199   1.000000
    6      -11.680054   1.000000
    7      -10.240183   1.000000
    8       -8.908308   1.000000
    9       -8.390192   1.000000
   10       -7.121845   1.000000
   11       -6.363117   1.000000
   12       -5.281265   1.000000
   13       -4.763824   1.000000
   14       -4.605839   1.000000
   15       -4.244197   1.000000
   16       -2.730901   0.000000
   17        0.155500   0.000000
   18        0.801279   0.000000
   19        1.218111   0.000000
   20        1.654585   0.000000
   21        2.289025   0.000000
   22        2.622551   0.000000
   23        4.598661   0.000000
   24        5.182193   0.000000
   25        5.198239   0.000000
   26        5.415329   0.000000
   27        6.098775   0.000000
   28        6.120280   0.000000
   29        6.643400   0.000000
   30        6.706289   0.000000
   31        6.876560   0.000000
   32        6.920426   0.000000
 
  0.2580645E+00  0.0000000E+00  0.0000000E+00  0.2081165E-02
    1      -19.640947   1.000000
    2      -16.880868   1.000000
    3      -16.265978   1.000000
    4      -13.958161   1.000000
    5      -12.844199   1.000000
    6      -11.452859   1.000000
    7       -9.983174   1.000000
    8       -9.048840   1.000000
    9       -8.301526   1.000000
   10       -7.335972   1.000000
   11       -6.348391   1.000000
   12       -5.478508   1.000000
   13       -5.029776   1.000000
   14       -4.633626   1.000000
   15       -4.359602   1.000000
   16       -2.828117   0.000000
   17        0.249574   0.000000
   18        0.933570   0.000000
   19        1.333468   0.000000
   20        1.968340   0.000000
   21        2.465496   0.000000
   22        2.739050   0.000000
   23        4.711823   0.000000
   24        4.849975   0.000000
   25        5.275529   0.000000
   26        5.494106   0.000000
   27        5.750831   0.000000
   28        6.314716   0.000000
   29        6.400247   0.000000
   30        6.666382   0.000000
   31        6.792108   0.000000
   32        6.888824   0.000000
 
  0.2903226E+00  0.2775558E-16  0.0000000E+00  0.2081165E-02
    1      -19.583903   1.000000
    2      -17.032618   1.000000
    3      -16.309779   1.000000
    4      -14.011093   1.000000
    5      -12.674891   1.000000
    6      -11.214789   1.000000
    7       -9.712534   1.000000
    8       -9.203105   1.000000
    9       -8.203096   1.000000
   10       -7.560205   1.000000
   11       -6.322603   1.000000
   12       -5.680387   1.000000
   13       -5.316412   1.000000
   14       -4.660480   1.000000
   15       -4.478592   1.000000
   16       -2.911919   0.000000
   17        0.344011   0.000000
   18        1.063303   0.000000
   19        1.463975   0.000000
   20        2.235212   0.000000
   21        2.715366   0.000000
   22        2.870966   0.000000
   23        4.516425   0.000000
   24        4.836949   0.000000
   25        5.355851   0.000000
   26        5.421157   0.000000
   27        5.588222   0.000000
   28        5.976590   0.000000
   29        6.546942   0.000000
   30        6.614977   0.000000
   31        6.871474   0.000000
   32        6.878893   0.000000
 
  0.3225806E+00  0.2775558E-16  0.0000000E+00  0.2081165E-02
    1      -19.525026   1.000000
    2      -17.176013   1.000000
    3      -16.349297   1.000000
    4      -14.058755   1.000000
    5      -12.502533   1.000000
    6      -10.969002   1.000000
    7       -9.435746   1.000000
    8       -9.366089   1.000000
    9       -8.096239   1.000000
   10       -7.786203   1.000000
   11       -6.286949   1.000000
   12       -5.881780   1.000000
   13       -5.619799   1.000000
   14       -4.685379   1.000000
   15       -4.597436   1.000000
   16       -2.982772   0.000000
   17        0.434909   0.000000
   18        1.187473   0.000000
   19        1.609593   0.000000
   20        2.449593   0.000000
   21        3.018282   0.000000
   22        3.038179   0.000000
   23        4.195111   0.000000
   24        4.947475   0.000000
   25        5.137392   0.000000
   26        5.423070   0.000000
   27        5.643369   0.000000
   28        5.706908   0.000000
   29        6.506140   0.000000
   30        6.563438   0.000000
   31        6.853277   0.000000
   32        7.041090   0.000000
 
  0.3548387E+00  0.0000000E+00  0.0000000E+00  0.2081165E-02
    1      -19.466790   1.000000
    2      -17.306848   1.000000
    3      -16.383537   1.000000
    4      -14.099928   1.000000
    5      -12.332459   1.000000
    6      -10.718417   1.000000
    7       -9.531190   1.000000
    8       -9.168606   1.000000
    9       -7.997027   1.000000
   10       -7.983159   1.000000
   11       -6.243837   1.000000
   12       -6.077527   1.000000
   13       -5.936111   1.000000
   14       -4.711753   1.000000
   15       -4.707564   1.000000
   16       -3.041162   0.000000
   17        0.518698   0.000000
   18        1.301974   0.000000
   19        1.770288   0.000000
   20        2.639844   0.000000
   21        3.180985   0.000000
   22        3.399107   0.000000
   23        3.887266   0.000000
   24        4.773782   0.000000
   25        5.171549   0.000000
   26        5.333170   0.000000
   27        5.474942   0.000000
   28        5.835652   0.000000
   29        6.443422   0.000000
   30        6.519740   0.000000
   31        6.757715   0.000000
   32        6.832346   0.000000
 
  0.3870968E+00 -0.2775558E-16  0.0000000E+00  0.2081165E-02
    1      -19.412390   1.000000
    2      -17.420650   1.000000
    3      -16.411739   1.000000
    4      -14.133739   1.000000
    5      -12.171851   1.000000
    6      -10.466511   1.000000
    7       -9.689872   1.000000
    8       -8.957877   1.000000
    9       -8.144338   1.000000
   10       -7.867578   1.000000
   11       -6.261628   1.000000
   12       -6.261608   1.000000
   13       -6.197225   1.000000
   14       -4.816554   1.000000
   15       -4.726127   1.000000
   16       -3.087458   0.000000
   17        0.591674   0.000000
   18        1.402116   0.000000
   19        1.946031   0.000000
   20        2.826855   0.000000
   21        3.359060   0.000000
   22        3.593433   0.000000
   23        3.763367   0.000000
   24        4.513261   0.000000
   25        5.033840   0.000000
   26        5.336282   0.000000
   27        5.512398   0.000000
   28        5.984458   0.000000
   29        6.388406   0.000000
   30        6.447271   0.000000
   31        6.486603   0.000000
   32        6.810324   0.000000
 
  0.4193548E+00  0.0000000E+00  0.0000000E+00  0.2081165E-02
    1      -19.365755   1.000000
    2      -17.512580   1.000000
    3      -16.433342   1.000000
    4      -14.159569   1.000000
    5      -12.030750   1.000000
    6      -10.219007   1.000000
    7       -9.830796   1.000000
    8       -8.911587   1.000000
    9       -8.116983   1.000000
   10       -7.756344   1.000000
   11       -6.592033   1.000000
   12       -6.425640   1.000000
   13       -6.152377   1.000000
   14       -4.905636   1.000000
   15       -4.740563   1.000000
   16       -3.121973   0.000000
   17        0.649790   0.000000
   18        1.482798   0.000000
   19        2.136778   0.000000
   20        3.019544   0.000000
   21        3.313904   0.000000
   22        3.552508   0.000000
   23        4.015810   0.000000
   24        4.378391   0.000000
   25        4.749095   0.000000
   26        5.518730   0.000000
   27        5.538310   0.000000
   28        6.120561   0.000000
   29        6.142461   0.000000
   30        6.345833   0.000000
   31        6.464142   0.000000
   32        6.769918   0.000000
 
  0.4516129E+00  0.2775558E-16  0.0000000E+00  0.2081165E-02
    1      -19.331206   1.000000
    2      -17.577657   1.000000
    3      -16.447951   1.000000
    4      -14.177001   1.000000
    5      -11.922642   1.000000
    6       -9.989248   1.000000
    7       -9.939398   1.000000
    8       -9.030525   1.000000
    9       -7.905633   1.000000
   10       -7.661866   1.000000
   11       -6.921095   1.000000
   12       -6.555917   1.000000
   13       -6.116066   1.000000
   14       -4.971669   1.000000
   15       -4.750413   1.000000
   16       -3.144865   0.000001
   17        0.690502   0.000000
   18        1.539614   0.000000
   19        2.342496   0.000000
   20        3.048937   0.000000
   21        3.221584   0.000000
   22        3.761278   0.000000
   23        3.885728   0.000000
   24        4.479351   0.000000
   25        4.636822   0.000000
   26        5.554565   0.000000
   27        5.669729   0.000000
   28        5.823783   0.000000
   29        6.295387   0.000000
   30        6.317063   0.000000
   31        6.450968   0.000000
   32        6.510717   0.000000
 
  0.4838710E+00  0.2775558E-16  0.0000000E+00  0.2081165E-02
    1      -19.312711   1.000000
    2      -17.611519   1.000000
    3      -16.455317   1.000000
    4      -14.185781   1.000000
    5      -11.862916   1.000000
    6       -9.999564   1.000000
    7       -9.820599   1.000000
    8       -9.165827   1.000000
    9       -7.637193   1.000000
   10       -7.604443   1.000000
   11       -7.226645   1.000000
   12       -6.631434   1.000000
   13       -6.095460   1.000000
   14       -5.007225   1.000000
   15       -4.755405   1.000000
   16       -3.156286   0.000003
   17        0.711385   0.000000
   18        1.568985   0.000000
   19        2.563124   0.000000
   20        2.798657   0.000000
   21        3.432698   0.000000
   22        3.663733   0.000000
   23        3.985357   0.000000
   24        4.224761   0.000000
   25        4.980813   0.000000
   26        5.414453   0.000000
   27        5.562390   0.000000
   28        5.925388   0.000000
   29        6.292382   0.000000
   30        6.302587   0.000000
   31        6.405459   0.000000
   32        6.445652   0.000000
 
  0.0000000E+00  0.3225806E-01  0.0000000E+00  0.2081165E-02
    1      -19.880774   1.000000
    2      -16.004251   1.000000
    3      -15.989808   1.000000
    4      -13.647310   1.000000
    5      -13.626723   1.000000
    6      -12.553106   1.000000
    7      -11.225251   1.000000
    8       -8.682558   1.000000
    9       -8.465223   1.000000
   10       -6.323230   1.000000
   11       -6.307929   1.000000
   12       -4.499855   1.000000
   13       -4.483888   1.000000
   14       -3.813692   0.999999
   15       -3.802369   0.999998
   16       -2.000652   0.000000
   17       -0.218707   0.000000
   18       -0.173395   0.000000
   19        0.448639   0.000000
   20        0.847096   0.000000
   21        1.850418   0.000000
   22        2.248748   0.000000
   23        4.231911   0.000000
   24        4.851788   0.000000
   25        5.020408   0.000000
   26        5.033559   0.000000
   27        6.303818   0.000000
   28        6.772734   0.000000
   29        6.794492   0.000000
   30        7.648628   0.000000
   31        7.878534   0.000000
   32        7.897517   0.000000
 
  0.3225806E-01  0.3225806E-01  0.0000000E+00  0.2081165E-02
    1      -19.872597   1.000000
    2      -16.044613   1.000000
    3      -16.003388   1.000000
    4      -13.656962   1.000000
    5      -13.598567   1.000000
    6      -12.512421   1.000000
    7      -11.176505   1.000000
    8       -8.670172   1.000000
    9       -8.482347   1.000000
   10       -6.359972   1.000000
   11       -6.315547   1.000000
   12       -4.537083   1.000000
   13       -4.490893   1.000000
   14       -3.856676   1.000000
   15       -3.823254   1.000000
   16       -2.066635   0.000000
   17       -0.203343   0.000000
   18       -0.071048   0.000000
   19        0.483542   0.000000
   20        0.862634   0.000000
   21        1.867282   0.000000
   22        2.264367   0.000000
   23        4.247256   0.000000
   24        4.868312   0.000000
   25        5.043247   0.000000
   26        5.081943   0.000000
   27        6.318218   0.000000
   28        6.777159   0.000000
   29        6.840249   0.000000
   30        7.418252   0.000000
   31        7.547474   0.000000
   32        8.112776   0.000000
 
  0.6451613E-01  0.3225806E-01  0.0000000E+00  0.2081165E-02
    1      -19.856339   1.000000
    2      -16.121011   1.000000
    3      -16.029617   1.000000
    4      -13.676534   1.000000
    5      -13.544522   1.000000
    6      -12.430966   1.000000
    7      -11.082022   1.000000
    8       -8.645429   1.000000
    9       -8.517251   1.000000
   10       -6.431685   1.000000
   11       -6.329718   1.000000
   12       -4.609717   1.000000
   13       -4.504925   1.000000
   14       -3.941260   1.000000
   15       -3.864972   1.000000
   16       -2.176640   0.000000
   17       -0.174583   0.000000
   18        0.107228   0.000000
   19        0.557567   0.000000
   20        0.893682   0.000000
   21        1.901163   0.000000
   22        2.295592   0.000000
   23        4.277941   0.000000
   24        4.900533   0.000000
   25        5.087421   0.000000
   26        5.176945   0.000000
   27        6.337425   0.000000
   28        6.774353   0.000000
   29        6.919835   0.000000
   30        7.095553   0.000000
   31        7.338784   0.000000
   32        7.827137   0.000000
 
  0.9677419E-01  0.3225806E-01  0.0000000E+00  0.2081165E-02
    1      -19.832192   1.000000
    2      -16.227087   1.000000
    3      -16.065948   1.000000
    4      -13.708205   1.000000
    5      -13.465002   1.000000
    6      -12.310555   1.000000
    7      -10.946744   1.000000
    8       -8.608431   1.000000
    9       -8.571030   1.000000
   10       -6.536508   1.000000
   11       -6.347076   1.000000
   12       -4.715398   1.000000
   13       -4.524999   1.000000
   14       -4.065593   1.000000
   15       -3.925748   1.000000
   16       -2.305505   0.000000
   17       -0.132113   0.000000
   18        0.316142   0.000000
   19        0.685382   0.000000
   20        0.940196   0.000000
   21        1.952444   0.000000
   22        2.342394   0.000000
   23        4.323942   0.000000
   24        4.947016   0.000000
   25        5.148872   0.000000
   26        5.316479   0.000000
   27        6.306066   0.000000
   28        6.680815   0.000000
   29        6.865596   0.000000
   30        7.061888   0.000000
   31        7.212850   0.000000
   32        7.429121   0.000000
 
  0.1290323E+00  0.3225806E-01  0.0000000E+00  0.2081165E-02
    1      -19.800473   1.000000
    2      -16.355362   1.000000
    3      -16.109478   1.000000
    4      -13.751021   1.000000
    5      -13.361927   1.000000
    6      -12.155778   1.000000
    7      -10.776181   1.000000
    8       -8.644742   1.000000
    9       -8.559346   1.000000
   10       -6.671620   1.000000
   11       -6.363495   1.000000
   12       -4.850382   1.000000
   13       -4.549921   1.000000
   14       -4.227161   1.000000
   15       -4.003702   1.000000
   16       -2.436035   0.000000
   17       -0.076501   0.000000
   18        0.505704   0.000000
   19        0.892105   0.000000
   20        1.002117   0.000000
   21        2.021949   0.000000
   22        2.404741   0.000000
   23        4.385208   0.000000
   24        5.006357   0.000000
   25        5.221363   0.000000
   26        5.497959   0.000000
   27        6.081290   0.000000
   28        6.601556   0.000000
   29        6.840979   0.000000
   30        7.035722   0.000000
   31        7.061942   0.000000
   32        7.294701   0.000000
 
  0.1612903E+00  0.3225806E-01  0.0000000E+00  0.2081165E-02
    1      -19.761649   1.000000
    2      -16.498587   1.000000
    3      -16.157300   1.000000
    4      -13.801780   1.000000
    5      -13.238225   1.000000
    6      -11.972850   1.000000
    7      -10.575584   1.000000
    8       -8.739117   1.000000
    9       -8.498434   1.000000
   10       -6.833550   1.000000
   11       -6.374994   1.000000
   12       -5.009793   1.000000
   13       -4.578373   1.000000
   14       -4.422666   1.000000
   15       -4.096299   1.000000
   16       -2.558866   0.000000
   17       -0.009248   0.000000
   18        0.661706   0.000000
   19        1.079380   0.000000
   20        1.172815   0.000000
   21        2.111496   0.000000
   22        2.482598   0.000000
   23        4.461648   0.000000
   24        5.077256   0.000000
   25        5.297581   0.000000
   26        5.711412   0.000000
   27        5.750277   0.000000
   28        6.578720   0.000000
   29        6.652974   0.000000
   30        6.832870   0.000000
   31        7.031593   0.000000
   32        7.328445   0.000000
 
  0.1935484E+00  0.3225806E-01  0.0000000E+00  0.2081165E-02
    1      -19.716358   1.000000
    2      -16.650346   1.000000
    3      -16.206782   1.000000
    4      -13.856655   1.000000
    5      -13.097281   1.000000
    6      -11.767959   1.000000
    7      -10.349661   1.000000
    8       -8.853841   1.000000
    9       -8.426057   1.000000
   10       -7.018280   1.000000
   11       -6.378091   1.000000
   12       -5.188058   1.000000
   13       -4.648541   1.000000
   14       -4.608953   1.000000
   15       -4.200694   1.000000
   16       -2.669903   0.000000
   17        0.067590   0.000000
   18        0.802723   0.000000
   19        1.171924   0.000000
   20        1.491783   0.000000
   21        2.225410   0.000000
   22        2.575933   0.000000
   23        4.553099   0.000000
   24        5.157737   0.000000
   25        5.337234   0.000000
   26        5.426753   0.000000
   27        5.972524   0.000000
   28        6.283060   0.000000
   29        6.515714   0.000000
   30        6.805209   0.000000
   31        6.890419   0.000000
   32        7.165271   0.000000
 
  0.2258065E+00  0.3225806E-01  0.0000000E+00  0.2081165E-02
    1      -19.665471   1.000000
    2      -16.805147   1.000000
    3      -16.255689   1.000000
    4      -13.912207   1.000000
    5      -12.942653   1.000000
    6      -11.546449   1.000000
    7      -10.102819   1.000000
    8       -8.987423   1.000000
    9       -8.342688   1.000000
   10       -7.221401   1.000000
   11       -6.370638   1.000000
   12       -5.379380   1.000000
   13       -4.900905   1.000000
   14       -4.640239   1.000000
   15       -4.313817   1.000000
   16       -2.767810   0.000000
   17        0.151278   0.000000
   18        0.939758   0.000000
   19        1.279688   0.000000
   20        1.816665   0.000000
   21        2.374555   0.000000
   22        2.684717   0.000000
   23        4.659211   0.000000
   24        5.025842   0.000000
   25        5.245581   0.000000
   26        5.466771   0.000000
   27        5.927466   0.000000
   28        6.242453   0.000000
   29        6.434825   0.000000
   30        6.504296   0.000000
   31        6.877506   0.000000
   32        7.115161   0.000000
 
  0.2580645E+00  0.3225806E-01  0.0000000E+00  0.2081165E-02
    1      -19.610180   1.000000
    2      -16.958226   1.000000
    3      -16.302198   1.000000
    4      -13.965678   1.000000
    5      -12.778043   1.000000
    6      -11.312623   1.000000
    7       -9.839628   1.000000
    8       -9.136758   1.000000
    9       -8.249076   1.000000
   10       -7.437864   1.000000
   11       -6.351801   1.000000
   12       -5.578291   1.000000
   13       -5.175745   1.000000
   14       -4.670946   1.000000
   15       -4.432217   1.000000
   16       -2.852601   0.000000
   17        0.238462   0.000000
   18        1.074446   0.000000
   19        1.402626   0.000000
   20        2.112739   0.000000
   21        2.582578   0.000000
   22        2.808929   0.000000
   23        4.687545   0.000000
   24        4.778889   0.000000
   25        5.331992   0.000000
   26        5.550482   0.000000
   27        5.588079   0.000000
   28        6.149961   0.000000
   29        6.322031   0.000000
   30        6.572795   0.000000
   31        6.892301   0.000000
   32        7.057180   0.000000
 
  0.2903226E+00  0.3225806E-01  0.0000000E+00  0.2081165E-02
    1      -19.552082   1.000000
    2      -17.105261   1.000000
    3      -16.344864   1.000000
    4      -14.015005   1.000000
    5      -12.607535   1.000000
    6      -11.069972   1.000000
    7       -9.566289   1.000000
    8       -9.297144   1.000000
    9       -8.146311   1.000000
   10       -7.661131   1.000000
   11       -6.322264   1.000000
   12       -5.779562   1.000000
   13       -5.469085   1.000000
   14       -4.699915   1.000000
   15       -4.552402   1.000000
   16       -2.924795   0.000000
   17        0.325290   0.000000
   18        1.204770   0.000000
   19        1.540693   0.000000
   20        2.352933   0.000000
   21        2.869728   0.000000
   22        2.948549   0.000000
   23        4.359911   0.000000
   24        4.905857   0.000000
   25        5.272026   0.000000
   26        5.408338   0.000000
   27        5.649003   0.000000
   28        5.817832   0.000000
   29        6.253315   0.000000
   30        6.765909   0.000000
   31        6.928799   0.000000
   32        6.952157   0.000000
 
  0.3225806E+00  0.3225806E-01  0.0000000E+00  0.2081165E-02
    1      -19.493318   1.000000
    2      -17.242056   1.000000
    3      -16.382562   1.000000
    4      -14.058676   1.000000
    5      -12.435944   1.000000
    6      -10.821563   1.000000
    7       -9.466180   1.000000
    8       -9.289328   1.000000
    9       -8.036091   1.000000
   10       -7.880165   1.000000
   11       -6.284574   1.000000
   12       -5.978022   1.000000
   13       -5.776477   1.000000
   14       -4.726127   1.000000
   15       -4.670252   1.000000
   16       -2.984974   0.000000
   17        0.408099   0.000000
   18        1.327070   0.000000
   19        1.693856   0.000000