       N       E                     dE             d eps       ncg     rms          rms(c)
DAV:   1     0.180899318567E+03    0.18090E+03   -0.10075E+04 30784   0.620E+02
DAV:   2    -0.503928254962E+02   -0.23129E+03   -0.20356E+03 50816   0.156E+02
DAV:   3    -0.729314763429E+02   -0.22539E+02   -0.22298E+02 43328   0.553E+01
DAV:   4    -0.734694604578E+02   -0.53798E+00   -0.53702E+00 42848   0.104E+01
DAV:   5    -0.734814750364E+02   -0.12015E-01   -0.12007E-01 40080   0.146E+00    0.132E+01
DAV:   6    -0.689753190423E+02    0.45062E+01   -0.40613E+00 44064   0.791E+00    0.742E+00
DAV:   7    -0.673312804644E+02    0.16440E+01   -0.37072E+00 44576   0.711E+00    0.220E+00
DAV:   8    -0.672518538625E+02    0.79427E-01   -0.22572E-01 42048   0.181E+00    0.527E-01
DAV:   9    -0.672369387747E+02    0.14915E-01   -0.22818E-02 39920   0.652E-01    0.180E-01
DAV:  10    -0.672258921875E+02    0.11047E-01   -0.69910E-03 40720   0.295E-01    0.158E-01
DAV:  11    -0.672252088615E+02    0.68333E-03   -0.31014E-03 40112   0.195E-01    0.519E-02
DAV:  12    -0.672231715208E+02    0.20373E-02   -0.14684E-03 33744   0.105E-01    0.400E-02
DAV:  13    -0.672259056907E+02   -0.27342E-02   -0.28008E-04 39248   0.601E-02    0.230E-02
DAV:  14    -0.672288046968E+02   -0.28990E-02   -0.59583E-04 40464   0.628E-02    0.186E-02
DAV:  15    -0.672290399250E+02   -0.23523E-03   -0.34450E-05 41760   0.195E-02    0.752E-03
DAV:  16    -0.672296100367E+02   -0.57011E-03   -0.56152E-05 37248   0.178E-02    0.258E-03
DAV:  17    -0.672296642620E+02   -0.54225E-04   -0.18572E-06 38016   0.433E-03    0.154E-03
DAV:  18    -0.672296906253E+02   -0.26363E-04   -0.88422E-07 33696   0.243E-03    0.285E-04
DAV:  19    -0.672296921608E+02   -0.15355E-05   -0.17654E-08 32176   0.455E-04    0.172E-04
DAV:  20    -0.672296932489E+02   -0.10881E-05   -0.25316E-08 26208   0.384E-04    0.472E-05
DAV:  21    -0.672296933457E+02   -0.96825E-07   -0.33031E-09 29856   0.152E-04
   1 F= -.67907730E+02 E0= -.67907730E+02  d E =-.679077E+02
