<?xml version="1.0" encoding="ISO-8859-1"?>
<modeling>
 <generator>
  <i name="program" type="string">vasp </i>
  <i name="version" type="string">5.4.4.18Apr17-6-g9f103f2a35  </i>
  <i name="subversion" type="string">(build Mar 30 2023 15:39:25) complex            parallel </i>
  <i name="platform" type="string">LinuxIFC </i>
  <i name="date" type="string">2023 09 12 </i>
  <i name="time" type="string">03:40:50 </i>
 </generator>
 <incar>
  <i type="string" name="SYSTEM"> BC3</i>
  <i type="int" name="ISTART">     0</i>
  <i type="string" name="PREC">accurate</i>
  <i type="string" name="ALGO"> Normal</i>
  <i type="int" name="ISPIN">     1</i>
  <i type="int" name="ICHARG">     2</i>
  <i type="int" name="IBRION">     2</i>
  <i name="EDIFF">      0.00000100</i>
  <i name="EDIFFG">     -0.01000000</i>
  <i type="int" name="NSW">   100</i>
  <i type="int" name="ISIF">     2</i>
  <i name="ENCUT">    450.00000000</i>
  <i type="int" name="ISMEAR">     0</i>
  <i name="SIGMA">      0.10000000</i>
  <i type="logical" name="LWAVE"> F  </i>
  <i type="logical" name="LCHARG"> F  </i>
  <v type="int" name="KPOINT_BSE">    -1     0     0     0</v>
  <i type="string" name="GGA"> PE</i>
 </incar>
 <structure name="primitive_cell" >
  <crystal>
   <varray name="basis" >
    <v>       4.47648500       2.58450000       0.00000000 </v>
    <v>      -4.47648500       2.58450000       0.00000000 </v>
    <v>       0.00000000       0.00000000      15.00000000 </v>
   </varray>
   <i name="volume">    347.08426447 </i>
   <varray name="rec_basis" >
    <v>       0.11169478       0.19346102       0.00000000 </v>
    <v>      -0.11169478       0.19346102       0.00000000 </v>
    <v>       0.00000000       0.00000000       0.06666667 </v>
   </varray>
  </crystal>
  <varray name="positions" >
   <v>       0.33833034      -0.33083568       0.25000000 </v>
   <v>       0.16373946       0.31999962       0.25000000 </v>
   <v>       0.16376430      -0.15623616       0.25000000 </v>
   <v>      -0.31250150      -0.15627000       0.25000000 </v>
   <v>      -0.15373264      -0.31500406       0.25000000 </v>
   <v>       0.32250218       0.16126397       0.25000000 </v>
   <v>      -0.15376137       0.16123684       0.25000000 </v>
   <v>      -0.32834478       0.33584146       0.25000000 </v>
  </varray>
 </structure>
 <varray name="primitive_index" >
  <v type="int" >        1 </v>
  <v type="int" >        3 </v>
  <v type="int" >        5 </v>
  <v type="int" >        7 </v>
  <v type="int" >        8 </v>
  <v type="int" >        4 </v>
  <v type="int" >        6 </v>
  <v type="int" >        2 </v>
 </varray>
 <kpoints>
  <generation param="Gamma">
   <v type="int" name="divisions">      31       31        1 </v>
   <v name="usershift">      0.00000000       0.00000000       0.00000000 </v>
   <v name="genvec1">      0.03225806       0.00000000       0.00000000 </v>
   <v name="genvec2">      0.00000000       0.03225806       0.00000000 </v>
   <v name="genvec3">      0.00000000       0.00000000       1.00000000 </v>
   <v name="shift">      0.00000000       0.00000000       0.00000000 </v>
  </generation>
  <varray name="kpointlist" >
   <v>       0.00000000       0.00000000       0.00000000 </v>
   <v>       0.03225806       0.00000000       0.00000000 </v>
   <v>       0.06451613       0.00000000       0.00000000 </v>
   <v>       0.09677419      -0.00000000       0.00000000 </v>
   <v>       0.12903226       0.00000000       0.00000000 </v>
   <v>       0.16129032       0.00000000       0.00000000 </v>
   <v>       0.19354839      -0.00000000       0.00000000 </v>
   <v>       0.22580645       0.00000000       0.00000000 </v>
   <v>       0.25806452       0.00000000       0.00000000 </v>
   <v>       0.29032258       0.00000000       0.00000000 </v>
   <v>       0.32258065       0.00000000       0.00000000 </v>
   <v>       0.35483871       0.00000000       0.00000000 </v>
   <v>       0.38709677      -0.00000000       0.00000000 </v>
   <v>       0.41935484       0.00000000       0.00000000 </v>
   <v>       0.45161290       0.00000000       0.00000000 </v>
   <v>       0.48387097       0.00000000       0.00000000 </v>
   <v>       0.00000000       0.03225806       0.00000000 </v>
   <v>       0.03225806       0.03225806       0.00000000 </v>
   <v>       0.06451613       0.03225806       0.00000000 </v>
   <v>       0.09677419       0.03225806       0.00000000 </v>
   <v>       0.12903226       0.03225806       0.00000000 </v>
   <v>       0.16129032       0.03225806       0.00000000 </v>
   <v>       0.19354839       0.03225806       0.00000000 </v>
   <v>       0.22580645       0.03225806       0.00000000 </v>
   <v>       0.25806452       0.03225806       0.00000000 </v>
   <v>       0.29032258       0.03225806       0.00000000 </v>
   <v>       0.32258065       0.03225806       0.00000000 </v>
   <v>       0.35483871       0.03225806       0.00000000 </v>
   <v>       0.38709677       0.03225806       0.00000000 </v>
   <v>       0.41935484       0.03225806       0.00000000 </v>
   <v>       0.45161290       0.03225806       0.00000000 </v>
   <v>       0.48387097       0.03225806       0.00000000 </v>
   <v>      -0.48387097       0.03225806       0.00000000 </v>
   <v>      -0.45161290       0.03225806       0.00000000 </v>
   <v>      -0.41935484       0.03225806       0.00000000 </v>
   <v>      -0.38709677       0.03225806       0.00000000 </v>
   <v>      -0.35483871       0.03225806       0.00000000 </v>
   <v>      -0.32258065       0.03225806       0.00000000 </v>
   <v>      -0.29032258       0.03225806       0.00000000 </v>
   <v>      -0.25806452       0.03225806       0.00000000 </v>
   <v>      -0.22580645       0.03225806       0.00000000 </v>
   <v>      -0.19354839       0.03225806       0.00000000 </v>
   <v>      -0.16129032       0.03225806       0.00000000 </v>
   <v>      -0.12903226       0.03225806       0.00000000 </v>
   <v>      -0.09677419       0.03225806       0.00000000 </v>
   <v>      -0.06451613       0.03225806       0.00000000 </v>
   <v>      -0.03225806       0.03225806       0.00000000 </v>
   <v>       0.00000000       0.06451613       0.00000000 </v>
   <v>       0.03225806       0.06451613       0.00000000 </v>
   <v>       0.06451613       0.06451613       0.00000000 </v>
   <v>       0.09677419       0.06451613       0.00000000 </v>
   <v>       0.12903226       0.06451613       0.00000000 </v>
   <v>       0.16129032       0.06451613       0.00000000 </v>
   <v>       0.19354839       0.06451613       0.00000000 </v>
   <v>       0.22580645       0.06451613       0.00000000 </v>
   <v>       0.25806452       0.06451613       0.00000000 </v>
   <v>       0.29032258       0.06451613       0.00000000 </v>
   <v>       0.32258065       0.06451613       0.00000000 </v>
   <v>       0.35483871       0.06451613       0.00000000 </v>
   <v>       0.38709677       0.06451613       0.00000000 </v>
   <v>       0.41935484       0.06451613       0.00000000 </v>
   <v>       0.45161290       0.06451613       0.00000000 </v>
   <v>       0.48387097       0.06451613       0.00000000 </v>
   <v>      -0.48387097       0.06451613       0.00000000 </v>
   <v>      -0.45161290       0.06451613       0.00000000 </v>
   <v>      -0.41935484       0.06451613       0.00000000 </v>
   <v>      -0.38709677       0.06451613       0.00000000 </v>
   <v>      -0.35483871       0.06451613       0.00000000 </v>
   <v>      -0.32258065       0.06451613       0.00000000 </v>
   <v>      -0.29032258       0.06451613       0.00000000 </v>
   <v>      -0.25806452       0.06451613       0.00000000 </v>
   <v>      -0.22580645       0.06451613       0.00000000 </v>
   <v>      -0.19354839       0.06451613       0.00000000 </v>
   <v>      -0.16129032       0.06451613       0.00000000 </v>
   <v>      -0.12903226       0.06451613       0.00000000 </v>
   <v>      -0.09677419       0.06451613       0.00000000 </v>
   <v>      -0.06451613       0.06451613       0.00000000 </v>
   <v>      -0.03225806       0.06451613       0.00000000 </v>
   <v>      -0.00000000       0.09677419       0.00000000 </v>
   <v>       0.03225806       0.09677419       0.00000000 </v>
   <v>       0.06451613       0.09677419       0.00000000 </v>
   <v>       0.09677419       0.09677419       0.00000000 </v>
   <v>       0.12903226       0.09677419       0.00000000 </v>
   <v>       0.16129032       0.09677419       0.00000000 </v>
   <v>       0.19354839       0.09677419       0.00000000 </v>
   <v>       0.22580645       0.09677419       0.00000000 </v>
   <v>       0.25806452       0.09677419       0.00000000 </v>
   <v>       0.29032258       0.09677419       0.00000000 </v>
   <v>       0.32258065       0.09677419       0.00000000 </v>
   <v>       0.35483871       0.09677419       0.00000000 </v>
   <v>       0.38709677       0.09677419       0.00000000 </v>
   <v>       0.41935484       0.09677419       0.00000000 </v>
   <v>       0.45161290       0.09677419       0.00000000 </v>
   <v>       0.48387097       0.09677419       0.00000000 </v>
   <v>      -0.48387097       0.09677419       0.00000000 </v>
   <v>      -0.45161290       0.09677419       0.00000000 </v>
   <v>      -0.41935484       0.09677419       0.00000000 </v>
   <v>      -0.38709677       0.09677419       0.00000000 </v>
   <v>      -0.35483871       0.09677419       0.00000000 </v>
   <v>      -0.32258065       0.09677419       0.00000000 </v>
   <v>      -0.29032258       0.09677419       0.00000000 </v>
   <v>      -0.25806452       0.09677419       0.00000000 </v>
   <v>      -0.22580645       0.09677419       0.00000000 </v>
   <v>      -0.19354839       0.09677419       0.00000000 </v>
   <v>      -0.16129032       0.09677419       0.00000000 </v>
   <v>      -0.12903226       0.09677419       0.00000000 </v>
   <v>      -0.09677419       0.09677419       0.00000000 </v>
   <v>      -0.06451613       0.09677419       0.00000000 </v>
   <v>      -0.03225806       0.09677419       0.00000000 </v>
   <v>       0.00000000       0.12903226       0.00000000 </v>
   <v>       0.03225806       0.12903226       0.00000000 </v>
   <v>       0.06451613       0.12903226       0.00000000 </v>
   <v>       0.09677419       0.12903226       0.00000000 </v>
   <v>       0.12903226       0.12903226       0.00000000 </v>
   <v>       0.16129032       0.12903226       0.00000000 </v>
   <v>       0.19354839       0.12903226       0.00000000 </v>
   <v>       0.22580645       0.12903226       0.00000000 </v>
   <v>       0.25806452       0.12903226       0.00000000 </v>
   <v>       0.29032258       0.12903226       0.00000000 </v>
   <v>       0.32258065       0.12903226       0.00000000 </v>
   <v>       0.35483871       0.12903226       0.00000000 </v>
   <v>       0.38709677       0.12903226       0.00000000 </v>
   <v>       0.41935484       0.12903226       0.00000000 </v>
   <v>       0.45161290       0.12903226       0.00000000 </v>
   <v>       0.48387097       0.12903226       0.00000000 </v>
   <v>      -0.48387097       0.12903226       0.00000000 </v>
   <v>      -0.45161290       0.12903226       0.00000000 </v>
   <v>      -0.41935484       0.12903226       0.00000000 </v>
   <v>      -0.38709677       0.12903226       0.00000000 </v>
   <v>      -0.35483871       0.12903226       0.00000000 </v>
   <v>      -0.32258065       0.12903226       0.00000000 </v>
   <v>      -0.29032258       0.12903226       0.00000000 </v>
   <v>      -0.25806452       0.12903226       0.00000000 </v>
   <v>      -0.22580645       0.12903226       0.00000000 </v>
   <v>      -0.19354839       0.12903226       0.00000000 </v>
   <v>      -0.16129032       0.12903226       0.00000000 </v>
   <v>      -0.12903226       0.12903226       0.00000000 </v>
   <v>      -0.09677419       0.12903226       0.00000000 </v>
   <v>      -0.06451613       0.12903226       0.00000000 </v>
   <v>      -0.03225806       0.12903226       0.00000000 </v>
   <v>       0.00000000       0.16129032       0.00000000 </v>
   <v>       0.03225806       0.16129032       0.00000000 </v>
   <v>       0.06451613       0.16129032       0.00000000 </v>
   <v>       0.09677419       0.16129032       0.00000000 </v>
   <v>       0.12903226       0.16129032       0.00000000 </v>
   <v>       0.16129032       0.16129032       0.00000000 </v>
   <v>       0.19354839       0.16129032       0.00000000 </v>
   <v>       0.22580645       0.16129032       0.00000000 </v>
   <v>       0.25806452       0.16129032       0.00000000 </v>
   <v>       0.29032258       0.16129032       0.00000000 </v>
   <v>       0.32258065       0.16129032       0.00000000 </v>
   <v>       0.35483871       0.16129032       0.00000000 </v>
   <v>       0.38709677       0.16129032       0.00000000 </v>
   <v>       0.41935484       0.16129032       0.00000000 </v>
   <v>       0.45161290       0.16129032       0.00000000 </v>
   <v>       0.48387097       0.16129032       0.00000000 </v>
   <v>      -0.48387097       0.16129032       0.00000000 </v>
   <v>      -0.45161290       0.16129032       0.00000000 </v>
   <v>      -0.41935484       0.16129032       0.00000000 </v>
   <v>      -0.38709677       0.16129032       0.00000000 </v>
   <v>      -0.35483871       0.16129032       0.00000000 </v>
   <v>      -0.32258065       0.16129032       0.00000000 </v>
   <v>      -0.29032258       0.16129032       0.00000000 </v>
   <v>      -0.25806452       0.16129032       0.00000000 </v>
   <v>      -0.22580645       0.16129032       0.00000000 </v>
   <v>      -0.19354839       0.16129032       0.00000000 </v>
   <v>      -0.16129032       0.16129032       0.00000000 </v>
   <v>      -0.12903226       0.16129032       0.00000000 </v>
   <v>      -0.09677419       0.16129032       0.00000000 </v>
   <v>      -0.06451613       0.16129032       0.00000000 </v>
   <v>      -0.03225806       0.16129032       0.00000000 </v>
   <v>      -0.00000000       0.19354839       0.00000000 </v>
   <v>       0.03225806       0.19354839       0.00000000 </v>
   <v>       0.06451613       0.19354839       0.00000000 </v>
   <v>       0.09677419       0.19354839       0.00000000 </v>
   <v>       0.12903226       0.19354839       0.00000000 </v>
   <v>       0.16129032       0.19354839       0.00000000 </v>
   <v>       0.19354839       0.19354839       0.00000000 </v>
   <v>       0.22580645       0.19354839       0.00000000 </v>
   <v>       0.25806452       0.19354839       0.00000000 </v>
   <v>       0.29032258       0.19354839       0.00000000 </v>
   <v>       0.32258065       0.19354839       0.00000000 </v>
   <v>       0.35483871       0.19354839       0.00000000 </v>
   <v>       0.38709677       0.19354839       0.00000000 </v>
   <v>       0.41935484       0.19354839       0.00000000 </v>
   <v>       0.45161290       0.19354839       0.00000000 </v>
   <v>       0.48387097       0.19354839       0.00000000 </v>
   <v>      -0.48387097       0.19354839       0.00000000 </v>
   <v>      -0.45161290       0.19354839       0.00000000 </v>
   <v>      -0.41935484       0.19354839       0.00000000 </v>
   <v>      -0.38709677       0.19354839       0.00000000 </v>
   <v>      -0.35483871       0.19354839       0.00000000 </v>
   <v>      -0.32258065       0.19354839       0.00000000 </v>
   <v>      -0.29032258       0.19354839       0.00000000 </v>
   <v>      -0.25806452       0.19354839       0.00000000 </v>
   <v>      -0.22580645       0.19354839       0.00000000 </v>
   <v>      -0.19354839       0.19354839       0.00000000 </v>
   <v>      -0.16129032       0.19354839       0.00000000 </v>
   <v>      -0.12903226       0.19354839       0.00000000 </v>
   <v>      -0.09677419       0.19354839       0.00000000 </v>
   <v>      -0.06451613       0.19354839       0.00000000 </v>
   <v>      -0.03225806       0.19354839       0.00000000 </v>
   <v>       0.00000000       0.22580645       0.00000000 </v>
   <v>       0.03225806       0.22580645       0.00000000 </v>
   <v>       0.06451613       0.22580645       0.00000000 </v>
   <v>       0.09677419       0.22580645       0.00000000 </v>
   <v>       0.12903226       0.22580645       0.00000000 </v>
   <v>       0.16129032       0.22580645       0.00000000 </v>
   <v>       0.19354839       0.22580645       0.00000000 </v>
   <v>       0.22580645       0.22580645       0.00000000 </v>
   <v>       0.25806452       0.22580645       0.00000000 </v>
   <v>       0.29032258       0.22580645       0.00000000 </v>
   <v>       0.32258065       0.22580645       0.00000000 </v>
   <v>       0.35483871       0.22580645       0.00000000 </v>
   <v>       0.38709677       0.22580645       0.00000000 </v>
   <v>       0.41935484       0.22580645       0.00000000 </v>
   <v>       0.45161290       0.22580645       0.00000000 </v>
   <v>       0.48387097       0.22580645       0.00000000 </v>
   <v>      -0.48387097       0.22580645       0.00000000 </v>
   <v>      -0.45161290       0.22580645       0.00000000 </v>
   <v>      -0.41935484       0.22580645       0.00000000 </v>
   <v>      -0.38709677       0.22580645       0.00000000 </v>
   <v>      -0.35483871       0.22580645       0.00000000 </v>
   <v>      -0.32258065       0.22580645       0.00000000 </v>
   <v>      -0.29032258       0.22580645       0.00000000 </v>
   <v>      -0.25806452       0.22580645       0.00000000 </v>
   <v>      -0.22580645       0.22580645       0.00000000 </v>
   <v>      -0.19354839       0.22580645       0.00000000 </v>
   <v>      -0.16129032       0.22580645       0.00000000 </v>
   <v>      -0.12903226       0.22580645       0.00000000 </v>
   <v>      -0.09677419       0.22580645       0.00000000 </v>
   <v>      -0.06451613       0.22580645       0.00000000 </v>
   <v>      -0.03225806       0.22580645       0.00000000 </v>
   <v>       0.00000000       0.25806452       0.00000000 </v>
   <v>       0.03225806       0.25806452       0.00000000 </v>
   <v>       0.06451613       0.25806452       0.00000000 </v>
   <v>       0.09677419       0.25806452       0.00000000 </v>
   <v>       0.12903226       0.25806452       0.00000000 </v>
   <v>       0.16129032       0.25806452       0.00000000 </v>
   <v>       0.19354839       0.25806452       0.00000000 </v>
   <v>       0.22580645       0.25806452       0.00000000 </v>
   <v>       0.25806452       0.25806452       0.00000000 </v>
   <v>       0.29032258       0.25806452       0.00000000 </v>
   <v>       0.32258065       0.25806452       0.00000000 </v>
   <v>       0.35483871       0.25806452       0.00000000 </v>
   <v>       0.38709677       0.25806452       0.00000000 </v>
   <v>       0.41935484       0.25806452       0.00000000 </v>
   <v>       0.45161290       0.25806452       0.00000000 </v>
   <v>       0.48387097       0.25806452       0.00000000 </v>
   <v>      -0.48387097       0.25806452       0.00000000 </v>
   <v>      -0.45161290       0.25806452       0.00000000 </v>
   <v>      -0.41935484       0.25806452       0.00000000 </v>
   <v>      -0.38709677       0.25806452       0.00000000 </v>
   <v>      -0.35483871       0.25806452       0.00000000 </v>
   <v>      -0.32258065       0.25806452       0.00000000 </v>
   <v>      -0.29032258       0.25806452       0.00000000 </v>
   <v>      -0.25806452       0.25806452       0.00000000 </v>
   <v>      -0.22580645       0.25806452       0.00000000 </v>
   <v>      -0.19354839       0.25806452       0.00000000 </v>
   <v>      -0.16129032       0.25806452       0.00000000 </v>
   <v>      -0.12903226       0.25806452       0.00000000 </v>
   <v>      -0.09677419       0.25806452       0.00000000 </v>
   <v>      -0.06451613       0.25806452       0.00000000 </v>
   <v>      -0.03225806       0.25806452       0.00000000 </v>
   <v>       0.00000000       0.29032258       0.00000000 </v>
   <v>       0.03225806       0.29032258       0.00000000 </v>
   <v>       0.06451613       0.29032258       0.00000000 </v>
   <v>       0.09677419       0.29032258       0.00000000 </v>
   <v>       0.12903226       0.29032258       0.00000000 </v>
   <v>       0.16129032       0.29032258       0.00000000 </v>
   <v>       0.19354839       0.29032258       0.00000000 </v>
   <v>       0.22580645       0.29032258       0.00000000 </v>
   <v>       0.25806452       0.29032258       0.00000000 </v>
   <v>       0.29032258       0.29032258       0.00000000 </v>
   <v>       0.32258065       0.29032258       0.00000000 </v>
   <v>       0.35483871       0.29032258       0.00000000 </v>
   <v>       0.38709677       0.29032258       0.00000000 </v>
   <v>       0.41935484       0.29032258       0.00000000 </v>
   <v>       0.45161290       0.29032258       0.00000000 </v>
   <v>       0.48387097       0.29032258       0.00000000 </v>
   <v>      -0.48387097       0.29032258       0.00000000 </v>
   <v>      -0.45161290       0.29032258       0.00000000 </v>
   <v>      -0.41935484       0.29032258       0.00000000 </v>
   <v>      -0.38709677       0.29032258       0.00000000 </v>
   <v>      -0.35483871       0.29032258       0.00000000 </v>
   <v>      -0.32258065       0.29032258       0.00000000 </v>
   <v>      -0.29032258       0.29032258       0.00000000 </v>
   <v>      -0.25806452       0.29032258       0.00000000 </v>
   <v>      -0.22580645       0.29032258       0.00000000 </v>
   <v>      -0.19354839       0.29032258       0.00000000 </v>
   <v>      -0.16129032       0.29032258       0.00000000 </v>
   <v>      -0.12903226       0.29032258       0.00000000 </v>
   <v>      -0.09677419       0.29032258       0.00000000 </v>
   <v>      -0.06451613       0.29032258       0.00000000 </v>
   <v>      -0.03225806       0.29032258       0.00000000 </v>
   <v>       0.00000000       0.32258065       0.00000000 </v>
   <v>       0.03225806       0.32258065       0.00000000 </v>
   <v>       0.06451613       0.32258065       0.00000000 </v>
   <v>       0.09677419       0.32258065       0.00000000 </v>
   <v>       0.12903226       0.32258065       0.00000000 </v>
   <v>       0.16129032       0.32258065       0.00000000 </v>
   <v>       0.19354839       0.32258065       0.00000000 </v>
   <v>       0.22580645       0.32258065       0.00000000 </v>
   <v>       0.25806452       0.32258065       0.00000000 </v>
   <v>       0.29032258       0.32258065       0.00000000 </v>
   <v>       0.32258065       0.32258065       0.00000000 </v>
   <v>       0.35483871       0.32258065       0.00000000 </v>
   <v>       0.38709677       0.32258065       0.00000000 </v>
   <v>       0.41935484       0.32258065       0.00000000 </v>
   <v>       0.45161290       0.32258065       0.00000000 </v>
   <v>       0.48387097       0.32258065       0.00000000 </v>
   <v>      -0.48387097       0.32258065       0.00000000 </v>
   <v>      -0.45161290       0.32258065       0.00000000 </v>
   <v>      -0.41935484       0.32258065       0.00000000 </v>
   <v>      -0.38709677       0.32258065       0.00000000 </v>
   <v>      -0.35483871       0.32258065       0.00000000 </v>
   <v>      -0.32258065       0.32258065       0.00000000 </v>
   <v>      -0.29032258       0.32258065       0.00000000 </v>
   <v>      -0.25806452       0.32258065       0.00000000 </v>
   <v>      -0.22580645       0.32258065       0.00000000 </v>
   <v>      -0.19354839       0.32258065       0.00000000 </v>
   <v>      -0.16129032       0.32258065       0.00000000 </v>
   <v>      -0.12903226       0.32258065       0.00000000 </v>
   <v>      -0.09677419       0.32258065       0.00000000 </v>
   <v>      -0.06451613       0.32258065       0.00000000 </v>
   <v>      -0.03225806       0.32258065       0.00000000 </v>
   <v>       0.00000000       0.35483871       0.00000000 </v>
   <v>       0.03225806       0.35483871       0.00000000 </v>
   <v>       0.06451613       0.35483871       0.00000000 </v>
   <v>       0.09677419       0.35483871       0.00000000 </v>
   <v>       0.12903226       0.35483871       0.00000000 </v>
   <v>       0.16129032       0.35483871       0.00000000 </v>
   <v>       0.19354839       0.35483871       0.00000000 </v>
   <v>       0.22580645       0.35483871       0.00000000 </v>
   <v>       0.25806452       0.35483871       0.00000000 </v>
   <v>       0.29032258       0.35483871       0.00000000 </v>
   <v>       0.32258065       0.35483871       0.00000000 </v>
   <v>       0.35483871       0.35483871       0.00000000 </v>
   <v>       0.38709677       0.35483871       0.00000000 </v>
   <v>       0.41935484       0.35483871       0.00000000 </v>
   <v>       0.45161290       0.35483871       0.00000000 </v>
   <v>       0.48387097       0.35483871       0.00000000 </v>
   <v>      -0.48387097       0.35483871       0.00000000 </v>
   <v>      -0.45161290       0.35483871       0.00000000 </v>
   <v>      -0.41935484       0.35483871       0.00000000 </v>
   <v>      -0.38709677       0.35483871       0.00000000 </v>
   <v>      -0.35483871       0.35483871       0.00000000 </v>
   <v>      -0.32258065       0.35483871       0.00000000 </v>
   <v>      -0.29032258       0.35483871       0.00000000 </v>
   <v>      -0.25806452       0.35483871       0.00000000 </v>
   <v>      -0.22580645       0.35483871       0.00000000 </v>
   <v>      -0.19354839       0.35483871       0.00000000 </v>
   <v>      -0.16129032       0.35483871       0.00000000 </v>
   <v>      -0.12903226       0.35483871       0.00000000 </v>
   <v>      -0.09677419       0.35483871       0.00000000 </v>
   <v>      -0.06451613       0.35483871       0.00000000 </v>
   <v>      -0.03225806       0.35483871       0.00000000 </v>
   <v>      -0.00000000       0.38709677       0.00000000 </v>
   <v>       0.03225806       0.38709677       0.00000000 </v>
   <v>       0.06451613       0.38709677       0.00000000 </v>
   <v>       0.09677419       0.38709677       0.00000000 </v>
   <v>       0.12903226       0.38709677       0.00000000 </v>
   <v>       0.16129032       0.38709677       0.00000000 </v>
   <v>       0.19354839       0.38709677       0.00000000 </v>
   <v>       0.22580645       0.38709677       0.00000000 </v>
   <v>       0.25806452       0.38709677       0.00000000 </v>
   <v>       0.29032258       0.38709677       0.00000000 </v>
   <v>       0.32258065       0.38709677       0.00000000 </v>
   <v>       0.35483871       0.38709677       0.00000000 </v>
   <v>       0.38709677       0.38709677       0.00000000 </v>
   <v>       0.41935484       0.38709677       0.00000000 </v>
   <v>       0.45161290       0.38709677       0.00000000 </v>
   <v>       0.48387097       0.38709677       0.00000000 </v>
   <v>      -0.48387097       0.38709677       0.00000000 </v>
   <v>      -0.45161290       0.38709677       0.00000000 </v>
   <v>      -0.41935484       0.38709677       0.00000000 </v>
   <v>      -0.38709677       0.38709677       0.00000000 </v>
   <v>      -0.35483871       0.38709677       0.00000000 </v>
   <v>      -0.32258065       0.38709677       0.00000000 </v>
   <v>      -0.29032258       0.38709677       0.00000000 </v>
   <v>      -0.25806452       0.38709677       0.00000000 </v>
   <v>      -0.22580645       0.38709677       0.00000000 </v>
   <v>      -0.19354839       0.38709677       0.00000000 </v>
   <v>      -0.16129032       0.38709677       0.00000000 </v>
   <v>      -0.12903226       0.38709677       0.00000000 </v>
   <v>      -0.09677419       0.38709677       0.00000000 </v>
   <v>      -0.06451613       0.38709677       0.00000000 </v>
   <v>      -0.03225806       0.38709677       0.00000000 </v>
   <v>       0.00000000       0.41935484       0.00000000 </v>
   <v>       0.03225806       0.41935484       0.00000000 </v>
   <v>       0.06451613       0.41935484       0.00000000 </v>
   <v>       0.09677419       0.41935484       0.00000000 </v>
   <v>       0.12903226       0.41935484       0.00000000 </v>
   <v>       0.16129032       0.41935484       0.00000000 </v>
   <v>       0.19354839       0.41935484       0.00000000 </v>
   <v>       0.22580645       0.41935484       0.00000000 </v>
   <v>       0.25806452       0.41935484       0.00000000 </v>
   <v>       0.29032258       0.41935484       0.00000000 </v>
   <v>       0.32258065       0.41935484       0.00000000 </v>
   <v>       0.35483871       0.41935484       0.00000000 </v>
   <v>       0.38709677       0.41935484       0.00000000 </v>
   <v>       0.41935484       0.41935484       0.00000000 </v>
   <v>       0.45161290       0.41935484       0.00000000 </v>
   <v>       0.48387097       0.41935484       0.00000000 </v>
   <v>      -0.48387097       0.41935484       0.00000000 </v>
   <v>      -0.45161290       0.41935484       0.00000000 </v>
   <v>      -0.41935484       0.41935484       0.00000000 </v>
   <v>      -0.38709677       0.41935484       0.00000000 </v>
   <v>      -0.35483871       0.41935484       0.00000000 </v>
   <v>      -0.32258065       0.41935484       0.00000000 </v>
   <v>      -0.29032258       0.41935484       0.00000000 </v>
   <v>      -0.25806452       0.41935484       0.00000000 </v>
   <v>      -0.22580645       0.41935484       0.00000000 </v>
   <v>      -0.19354839       0.41935484       0.00000000 </v>
   <v>      -0.16129032       0.41935484       0.00000000 </v>
   <v>      -0.12903226       0.41935484       0.00000000 </v>
   <v>      -0.09677419       0.41935484       0.00000000 </v>
   <v>      -0.06451613       0.41935484       0.00000000 </v>
   <v>      -0.03225806       0.41935484       0.00000000 </v>
   <v>       0.00000000       0.45161290       0.00000000 </v>
   <v>       0.03225806       0.45161290       0.00000000 </v>
   <v>       0.06451613       0.45161290       0.00000000 </v>
   <v>       0.09677419       0.45161290       0.00000000 </v>
   <v>       0.12903226       0.45161290       0.00000000 </v>
   <v>       0.16129032       0.45161290       0.00000000 </v>
   <v>       0.19354839       0.45161290       0.00000000 </v>
   <v>       0.22580645       0.45161290       0.00000000 </v>
   <v>       0.25806452       0.45161290       0.00000000 </v>
   <v>       0.29032258       0.45161290       0.00000000 </v>
   <v>       0.32258065       0.45161290       0.00000000 </v>
   <v>       0.35483871       0.45161290       0.00000000 </v>
   <v>       0.38709677       0.45161290       0.00000000 </v>
   <v>       0.41935484       0.45161290       0.00000000 </v>
   <v>       0.45161290       0.45161290       0.00000000 </v>
   <v>       0.48387097       0.45161290       0.00000000 </v>
   <v>      -0.48387097       0.45161290       0.00000000 </v>
   <v>      -0.45161290       0.45161290       0.00000000 </v>
   <v>      -0.41935484       0.45161290       0.00000000 </v>
   <v>      -0.38709677       0.45161290       0.00000000 </v>
   <v>      -0.35483871       0.45161290       0.00000000 </v>
   <v>      -0.32258065       0.45161290       0.00000000 </v>
   <v>      -0.29032258       0.45161290       0.00000000 </v>
   <v>      -0.25806452       0.45161290       0.00000000 </v>
   <v>      -0.22580645       0.45161290       0.00000000 </v>
   <v>      -0.19354839       0.45161290       0.00000000 </v>
   <v>      -0.16129032       0.45161290       0.00000000 </v>
   <v>      -0.12903226       0.45161290       0.00000000 </v>
   <v>      -0.09677419       0.45161290       0.00000000 </v>
   <v>      -0.06451613       0.45161290       0.00000000 </v>
   <v>      -0.03225806       0.45161290       0.00000000 </v>
   <v>       0.00000000       0.48387097       0.00000000 </v>
   <v>       0.03225806       0.48387097       0.00000000 </v>
   <v>       0.06451613       0.48387097       0.00000000 </v>
   <v>       0.09677419       0.48387097       0.00000000 </v>
   <v>       0.12903226       0.48387097       0.00000000 </v>
   <v>       0.16129032       0.48387097       0.00000000 </v>
   <v>       0.19354839       0.48387097       0.00000000 </v>
   <v>       0.22580645       0.48387097       0.00000000 </v>
   <v>       0.25806452       0.48387097       0.00000000 </v>
   <v>       0.29032258       0.48387097       0.00000000 </v>
   <v>       0.32258065       0.48387097       0.00000000 </v>
   <v>       0.35483871       0.48387097       0.00000000 </v>
   <v>       0.38709677       0.48387097       0.00000000 </v>
   <v>       0.41935484       0.48387097       0.00000000 </v>
   <v>       0.45161290       0.48387097       0.00000000 </v>
   <v>       0.48387097       0.48387097       0.00000000 </v>
   <v>      -0.48387097       0.48387097       0.00000000 </v>
   <v>      -0.45161290       0.48387097       0.00000000 </v>
   <v>      -0.41935484       0.48387097       0.00000000 </v>
   <v>      -0.38709677       0.48387097       0.00000000 </v>
   <v>      -0.35483871       0.48387097       0.00000000 </v>
   <v>      -0.32258065       0.48387097       0.00000000 </v>
   <v>      -0.29032258       0.48387097       0.00000000 </v>
   <v>      -0.25806452       0.48387097       0.00000000 </v>
   <v>      -0.22580645       0.48387097       0.00000000 </v>
   <v>      -0.19354839       0.48387097       0.00000000 </v>
   <v>      -0.16129032       0.48387097       0.00000000 </v>
   <v>      -0.12903226       0.48387097       0.00000000 </v>
   <v>      -0.09677419       0.48387097       0.00000000 </v>
   <v>      -0.06451613       0.48387097       0.00000000 </v>
   <v>      -0.03225806       0.48387097       0.00000000 </v>
  </varray>
  <varray name="weights" >
   <v>       0.00104058 </v>
   <v>       0.00208117 </v>
   <v>       0.00208117 </v>
   <v>       0.00208117 </v>
   <v>       0.00208117 </v>
   <v>       0.00208117 </v>
   <v>       0.00208117 </v>
   <v>       0.00208117 </v>
   <v>       0.00208117 </v>
   <v>       0.00208117 </v>
   <v>       0.00208117 </v>
   <v>       0.00208117 </v>
   <v>       0.00208117 </v>
   <v>       0.00208117 </v>
   <v>       0.00208117 </v>
   <v>       0.00208117 </v>
   <v>       0.00208117 </v>
   <v>       0.00208117 </v>
   <v>       0.00208117 </v>
   <v>       0.00208117 </v>
   <v>       0.00208117 </v>
   <v>       0.00208117 </v>
   <v>       0.00208117 </v>
   <v>       0.00208117 </v>
   <v>       0.00208117 </v>
   <v>       0.00208117 </v>
   <v>       0.00208117 </v>
   <v>       0.00208117 </v>
   <v>       0.00208117 </v>
   <v>       0.00208117 </v>
   <v>       0.00208117 </v>
   <v>       0.00208117 </v>
   <v>       0.00208117 </v>
   <v>       0.00208117 </v>
   <v>       0.00208117 </v>
   <v>       0.00208117 </v>
   <v>       0.00208117 </v>
   <v>       0.00208117 </v>
   <v>       0.00208117 </v>
   <v>       0.00208117 </v>
   <v>       0.00208117 </v>
   <v>       0.00208117 </v>
   <v>       0.00208117 </v>
   <v>       0.00208117 </v>
   <v>       0.00208117 </v>
   <v>       0.00208117 </v>
   <v>       0.00208117 </v>
   <v>       0.00208117 </v>
   <v>       0.00208117 </v>
   <v>       0.00208117 </v>
   <v>       0.00208117 </v>
   <v>       0.00208117 </v>
   <v>       0.00208117 </v>
   <v>       0.00208117 </v>
   <v>       0.00208117 </v>
   <v>       0.00208117 </v>
   <v>       0.00208117 </v>
   <v>       0.00208117 </v>
   <v>       0.00208117 </v>
   <v>       0.00208117 </v>
   <v>       0.00208117 </v>
   <v>       0.00208117 </v>
   <v>       0.00208117 </v>
   <v>       0.00208117 </v>
   <v>       0.00208117 </v>
   <v>       0.00208117 </v>
   <v>       0.00208117 </v>
   <v>       0.00208117 </v>
   <v>       0.00208117 </v>
   <v>       0.00208117 </v>
   <v>       0.00208117 </v>
   <v>       0.00208117 </v>
   <v>       0.00208117 </v>
   <v>       0.00208117 </v>
   <v>       0.00208117 </v>
   <v>       0.00208117 </v>
   <v>       0.00208117 </v>
   <v>       0.00208117 </v>
   <v>       0.00208117 </v>
   <v>       0.00208117 </v>
   <v>       0.00208117 </v>
   <v>       0.00208117 </v>
   <v>       0.00208117 </v>
   <v>       0.00208117 </v>
   <v>       0.00208117 </v>
   <v>       0.00208117 </v>
   <v>       0.00208117 </v>
   <v>       0.00208117 </v>
   <v>       0.00208117 </v>
   <v>       0.00208117 </v>
   <v>       0.00208117 </v>
   <v>       0.00208117 </v>
   <v>       0.00208117 </v>
   <v>       0.00208117 </v>
   <v>       0.00208117 </v>
   <v>       0.00208117 </v>
   <v>       0.00208117 </v>
   <v>       0.00208117 </v>
   <v>       0.00208117 </v>
   <v>       0.00208117 </v>
   <v>       0.00208117 </v>
   <v>       0.00208117 </v>
   <v>       0.00208117 </v>
   <v>       0.00208117 </v>
   <v>       0.00208117 </v>
   <v>       0.00208117 </v>
   <v>       0.00208117 </v>
   <v>       0.00208117 </v>
   <v>       0.00208117 </v>
   <v>       0.00208117 </v>
   <v>       0.00208117 </v>
   <v>       0.00208117 </v>
   <v>       0.00208117 </v>
   <v>       0.00208117 </v>
   <v>       0.00208117 </v>
   <v>       0.00208117 </v>
   <v>       0.00208117 </v>
   <v>       0.00208117 </v>
   <v>       0.00208117 </v>
   <v>       0.00208117 </v>
   <v>       0.00208117 </v>
   <v>       0.00208117 </v>
   <v>       0.00208117 </v>
   <v>       0.00208117 </v>
   <v>       0.00208117 </v>
   <v>       0.00208117 </v>
   <v>       0.00208117 </v>
   <v>       0.00208117 </v>
   <v>       0.00208117 </v>
   <v>       0.00208117 </v>
   <v>       0.00208117 </v>
   <v>       0.00208117 </v>
   <v>       0.00208117 </v>
   <v>       0.00208117 </v>
   <v>       0.00208117 </v>
   <v>       0.00208117 </v>
   <v>       0.00208117 </v>
   <v>       0.00208117 </v>
   <v>       0.00208117 </v>
   <v>       0.00208117 </v>
   <v>       0.00208117 </v>
   <v>       0.00208117 </v>
   <v>       0.00208117 </v>
   <v>       0.00208117 </v>
   <v>       0.00208117 </v>
   <v>       0.00208117 </v>
   <v>       0.00208117 </v>
   <v>       0.00208117 </v>
   <v>       0.00208117 </v>
   <v>       0.00208117 </v>
   <v>       0.00208117 </v>
   <v>       0.00208117 </v>
   <v>       0.00208117 </v>
   <v>       0.00208117 </v>
   <v>       0.00208117 </v>
   <v>       0.00208117 </v>
   <v>       0.00208117 </v>
   <v>       0.00208117 </v>
   <v>       0.00208117 </v>
   <v>       0.00208117 </v>
   <v>       0.00208117 </v>
   <v>       0.00208117 </v>
   <v>       0.00208117 </v>
   <v>       0.00208117 </v>
   <v>       0.00208117 </v>
   <v>       0.00208117 </v>
   <v>       0.00208117 </v>
   <v>       0.00208117 </v>
   <v>       0.00208117 </v>
   <v>       0.00208117 </v>
   <v>       0.00208117 </v>
   <v>       0.00208117 </v>
   <v>       0.00208117 </v>
   <v>       0.00208117 </v>
   <v>       0.00208117 </v>
   <v>       0.00208117 </v>
   <v>       0.00208117 </v>
   <v>       0.00208117 </v>
   <v>       0.00208117 </v>
   <v>       0.00208117 </v>
   <v>       0.00208117 </v>
   <v>       0.00208117 </v>
   <v>       0.00208117 </v>
   <v>       0.00208117 </v>
   <v>       0.00208117 </v>
   <v>       0.00208117 </v>
   <v>       0.00208117 </v>
   <v>       0.00208117 </v>
   <v>       0.00208117 </v>
   <v>       0.00208117 </v>
   <v>       0.00208117 </v>
   <v>       0.00208117 </v>
   <v>       0.00208117 </v>
   <v>       0.00208117 </v>
   <v>       0.00208117 </v>
   <v>       0.00208117 </v>
   <v>       0.00208117 </v>
   <v>       0.00208117 </v>
   <v>       0.00208117 </v>
   <v>       0.00208117 </v>
   <v>       0.00208117 </v>
   <v>       0.00208117 </v>
   <v>       0.00208117 </v>
   <v>       0.00208117 </v>
   <v>       0.00208117 </v>
   <v>       0.00208117 </v>
   <v>       0.00208117 </v>
   <v>       0.00208117 </v>
   <v>       0.00208117 </v>
   <v>       0.00208117 </v>
   <v>       0.00208117 </v>
   <v>       0.00208117 </v>
   <v>       0.00208117 </v>
   <v>       0.00208117 </v>
   <v>       0.00208117 </v>
   <v>       0.00208117 </v>
   <v>       0.00208117 </v>
   <v>       0.00208117 </v>
   <v>       0.00208117 </v>
   <v>       0.00208117 </v>
   <v>       0.00208117 </v>
   <v>       0.00208117 </v>
   <v>       0.00208117 </v>
   <v>       0.00208117 </v>
   <v>       0.00208117 </v>
   <v>       0.00208117 </v>
   <v>       0.00208117 </v>
   <v>       0.00208117 </v>
   <v>       0.00208117 </v>
   <v>       0.00208117 </v>
   <v>       0.00208117 </v>
   <v>       0.00208117 </v>
   <v>       0.00208117 </v>
   <v>       0.00208117 </v>
   <v>       0.00208117 </v>
   <v>       0.00208117 </v>
   <v>       0.00208117 </v>
   <v>       0.00208117 </v>
   <v>       0.00208117 </v>
   <v>       0.00208117 </v>
   <v>       0.00208117 </v>
   <v>       0.00208117 </v>
   <v>       0.00208117 </v>
   <v>       0.00208117 </v>
   <v>       0.00208117 </v>
   <v>       0.00208117 </v>
   <v>       0.00208117 </v>
   <v>       0.00208117 </v>
   <v>       0.00208117 </v>
   <v>       0.00208117 </v>
   <v>       0.00208117 </v>
   <v>       0.00208117 </v>
   <v>       0.00208117 </v>
   <v>       0.00208117 </v>
   <v>       0.00208117 </v>
   <v>       0.00208117 </v>
   <v>       0.00208117 </v>
   <v>       0.00208117 </v>
   <v>       0.00208117 </v>
   <v>       0.00208117 </v>
   <v>       0.00208117 </v>
   <v>       0.00208117 </v>
   <v>       0.00208117 </v>
   <v>       0.00208117 </v>
   <v>       0.00208117 </v>
   <v>       0.00208117 </v>
   <v>       0.00208117 </v>
   <v>       0.00208117 </v>
   <v>       0.00208117 </v>
   <v>       0.00208117 </v>
   <v>       0.00208117 </v>
   <v>       0.00208117 </v>
   <v>       0.00208117 </v>
   <v>       0.00208117 </v>
   <v>       0.00208117 </v>
   <v>       0.00208117 </v>
   <v>       0.00208117 </v>
   <v>       0.00208117 </v>
   <v>       0.00208117 </v>
   <v>       0.00208117 </v>
   <v>       0.00208117 </v>
   <v>       0.00208117 </v>
   <v>       0.00208117 </v>
   <v>       0.00208117 </v>
   <v>       0.00208117 </v>
   <v>       0.00208117 </v>
   <v>       0.00208117 </v>
   <v>       0.00208117 </v>
   <v>       0.00208117 </v>
   <v>       0.00208117 </v>
   <v>       0.00208117 </v>
   <v>       0.00208117 </v>
   <v>       0.00208117 </v>
   <v>       0.00208117 </v>
   <v>       0.00208117 </v>
   <v>       0.00208117 </v>
   <v>       0.00208117 </v>
   <v>       0.00208117 </v>
   <v>       0.00208117 </v>
   <v>       0.00208117 </v>
   <v>       0.00208117 </v>
   <v>       0.00208117 </v>
   <v>       0.00208117 </v>
   <v>       0.00208117 </v>
   <v>       0.00208117 </v>
   <v>       0.00208117 </v>
   <v>       0.00208117 </v>
   <v>       0.00208117 </v>
   <v>       0.00208117 </v>
   <v>       0.00208117 </v>
   <v>       0.00208117 </v>
   <v>       0.00208117 </v>
   <v>       0.00208117 </v>
   <v>       0.00208117 </v>
   <v>       0.00208117 </v>
   <v>       0.00208117 </v>
   <v>       0.00208117 </v>
   <v>       0.00208117 </v>
   <v>       0.00208117 </v>
   <v>       0.00208117 </v>
   <v>       0.00208117 </v>
   <v>       0.00208117 </v>
   <v>       0.00208117 </v>
   <v>       0.00208117 </v>
   <v>       0.00208117 </v>
   <v>       0.00208117 </v>
   <v>       0.00208117 </v>
   <v>       0.00208117 </v>
   <v>       0.00208117 </v>
   <v>       0.00208117 </v>
   <v>       0.00208117 </v>
   <v>       0.00208117 </v>
   <v>       0.00208117 </v>
   <v>       0.00208117 </v>
   <v>       0.00208117 </v>
   <v>       0.00208117 </v>
   <v>       0.00208117 </v>
   <v>       0.00208117 </v>
   <v>       0.00208117 </v>
   <v>       0.00208117 </v>
   <v>       0.00208117 </v>
   <v>       0.00208117 </v>
   <v>       0.00208117 </v>
   <v>       0.00208117 </v>
   <v>       0.00208117 </v>
   <v>       0.00208117 </v>
   <v>       0.00208117 </v>
   <v>       0.00208117 </v>
   <v>       0.00208117 </v>
   <v>       0.00208117 </v>
   <v>       0.00208117 </v>
   <v>       0.00208117 </v>
   <v>       0.00208117 </v>
   <v>       0.00208117 </v>
   <v>       0.00208117 </v>
   <v>       0.00208117 </v>
   <v>       0.00208117 </v>
   <v>       0.00208117 </v>
   <v>       0.00208117 </v>
   <v>       0.00208117 </v>
   <v>       0.00208117 </v>
   <v>       0.00208117 </v>
   <v>       0.00208117 </v>
   <v>       0.00208117 </v>
   <v>       0.00208117 </v>
   <v>       0.00208117 </v>
   <v>       0.00208117 </v>
   <v>       0.00208117 </v>
   <v>       0.00208117 </v>
   <v>       0.00208117 </v>
   <v>       0.00208117 </v>
   <v>       0.00208117 </v>
   <v>       0.00208117 </v>
   <v>       0.00208117 </v>
   <v>       0.00208117 </v>
   <v>       0.00208117 </v>
   <v>       0.00208117 </v>
   <v>       0.00208117 </v>
   <v>       0.00208117 </v>
   <v>       0.00208117 </v>
   <v>       0.00208117 </v>
   <v>       0.00208117 </v>
   <v>       0.00208117 </v>
   <v>       0.00208117 </v>
   <v>       0.00208117 </v>
   <v>       0.00208117 </v>
   <v>       0.00208117 </v>
   <v>       0.00208117 </v>
   <v>       0.00208117 </v>
   <v>       0.00208117 </v>
   <v>       0.00208117 </v>
   <v>       0.00208117 </v>
   <v>       0.00208117 </v>
   <v>       0.00208117 </v>
   <v>       0.00208117 </v>
   <v>       0.00208117 </v>
   <v>       0.00208117 </v>
   <v>       0.00208117 </v>
   <v>       0.00208117 </v>
   <v>       0.00208117 </v>
   <v>       0.00208117 </v>
   <v>       0.00208117 </v>
   <v>       0.00208117 </v>
   <v>       0.00208117 </v>
   <v>       0.00208117 </v>
   <v>       0.00208117 </v>
   <v>       0.00208117 </v>
   <v>       0.00208117 </v>
   <v>       0.00208117 </v>
   <v>       0.00208117 </v>
   <v>       0.00208117 </v>
   <v>       0.00208117 </v>
   <v>       0.00208117 </v>
   <v>       0.00208117 </v>
   <v>       0.00208117 </v>
   <v>       0.00208117 </v>
   <v>       0.00208117 </v>
   <v>       0.00208117 </v>
   <v>       0.00208117 </v>
   <v>       0.00208117 </v>
   <v>       0.00208117 </v>
   <v>       0.00208117 </v>
   <v>       0.00208117 </v>
   <v>       0.00208117 </v>
   <v>       0.00208117 </v>
   <v>       0.00208117 </v>
   <v>       0.00208117 </v>
   <v>       0.00208117 </v>
   <v>       0.00208117 </v>
   <v>       0.00208117 </v>
   <v>       0.00208117 </v>
   <v>       0.00208117 </v>
   <v>       0.00208117 </v>
   <v>       0.00208117 </v>
   <v>       0.00208117 </v>
   <v>       0.00208117 </v>
   <v>       0.00208117 </v>
   <v>       0.00208117 </v>
   <v>       0.00208117 </v>
   <v>       0.00208117 </v>
   <v>       0.00208117 </v>
   <v>       0.00208117 </v>
   <v>       0.00208117 </v>
   <v>       0.00208117 </v>
   <v>       0.00208117 </v>
   <v>       0.00208117 </v>
   <v>       0.00208117 </v>
   <v>       0.00208117 </v>
   <v>       0.00208117 </v>
   <v>       0.00208117 </v>
   <v>       0.00208117 </v>
   <v>       0.00208117 </v>
   <v>       0.00208117 </v>
   <v>       0.00208117 </v>
   <v>       0.00208117 </v>
   <v>       0.00208117 </v>
   <v>       0.00208117 </v>
   <v>       0.00208117 </v>
   <v>       0.00208117 </v>
   <v>       0.00208117 </v>
   <v>       0.00208117 </v>
   <v>       0.00208117 </v>
   <v>       0.00208117 </v>
   <v>       0.00208117 </v>
   <v>       0.00208117 </v>
   <v>       0.00208117 </v>
   <v>       0.00208117 </v>
   <v>       0.00208117 </v>
   <v>       0.00208117 </v>
   <v>       0.00208117 </v>
   <v>       0.00208117 </v>
   <v>       0.00208117 </v>
   <v>       0.00208117 </v>
   <v>       0.00208117 </v>
   <v>       0.00208117 </v>
   <v>       0.00208117 </v>
   <v>       0.00208117 </v>
   <v>       0.00208117 </v>
   <v>       0.00208117 </v>
   <v>       0.00208117 </v>
   <v>       0.00208117 </v>
  </varray>
 </kpoints>
 <parameters>
  <separator name="general" >
   <i type="string" name="SYSTEM">BC3</i>
   <i type="logical" name="LCOMPAT"> F  </i>
  </separator>
  <separator name="electronic" >
   <i type="string" name="PREC">accura</i>
   <i name="ENMAX">    450.00000000</i>
   <i name="ENAUG">    644.87300000</i>
   <i name="EDIFF">      0.00000100</i>
   <i type="int" name="IALGO">    38</i>
   <i type="int" name="IWAVPR">    11</i>
   <i type="int" name="NBANDS">    32</i>
   <i name="NELECT">     30.00000000</i>
   <i type="int" name="TURBO">     0</i>
   <i type="int" name="IRESTART">     0</i>
   <i type="int" name="NREBOOT">     0</i>
   <i type="int" name="NMIN">     0</i>
   <i name="EREF">      0.00000000</i>
   <separator name="electronic smearing" >
    <i type="int" name="ISMEAR">     0</i>
    <i name="SIGMA">      0.10000000</i>
    <i name="KSPACING">      0.50000000</i>
    <i type="logical" name="KGAMMA"> T  </i>
   </separator>
   <separator name="electronic projectors" >
    <i type="logical" name="LREAL"> F  </i>
    <v name="ROPT">      0.00000000      0.00000000</v>
    <i type="int" name="LMAXPAW">  -100</i>
    <i type="int" name="LMAXMIX">     2</i>
    <i type="logical" name="NLSPLINE"> F  </i>
   </separator>
   <separator name="electronic startup" >
    <i type="int" name="ISTART">     0</i>
    <i type="int" name="ICHARG">     2</i>
    <i type="int" name="INIWAV">     1</i>
   </separator>
   <separator name="electronic spin" >
    <i type="int" name="ISPIN">     1</i>
    <i type="logical" name="LNONCOLLINEAR"> F  </i>
    <v name="MAGMOM">      1.00000000      1.00000000      1.00000000      1.00000000      1.00000000      1.00000000      1.00000000      1.00000000</v>
    <i name="NUPDOWN">     -1.00000000</i>
    <i type="logical" name="LSORBIT"> F  </i>
    <v name="SAXIS">      0.00000000      0.00000000      1.00000000</v>
    <i type="logical" name="LSPIRAL"> F  </i>
    <v name="QSPIRAL">      0.00000000      0.00000000      0.00000000</v>
    <i type="logical" name="LZEROZ"> F  </i>
   </separator>
   <separator name="electronic exchange-correlation" >
    <i type="logical" name="LASPH"> F  </i>
    <i type="logical" name="LMETAGGA"> F  </i>
   </separator>
   <separator name="electronic convergence" >
    <i type="int" name="NELM">    60</i>
    <i type="int" name="NELMDL">    -5</i>
    <i type="int" name="NELMIN">     2</i>
    <i name="ENINI">    450.00000000</i>
    <separator name="electronic convergence detail" >
     <i type="logical" name="LDIAG"> T  </i>
     <i type="logical" name="LSUBROT"> F  </i>
     <i name="WEIMIN">      0.00100000</i>
     <i name="EBREAK">      0.00000001</i>
     <i name="DEPER">      0.30000000</i>
     <i type="int" name="NRMM">     4</i>
     <i name="TIME">      0.40000000</i>
    </separator>
   </separator>
   <separator name="electronic mixer" >
    <i name="AMIX">      0.40000000</i>
    <i name="BMIX">      1.00000000</i>
    <i name="AMIN">      0.10000000</i>
    <i name="AMIX_MAG">      1.60000000</i>
    <i name="BMIX_MAG">      1.00000000</i>
    <separator name="electronic mixer details" >
     <i type="int" name="IMIX">     4</i>
     <i type="logical" name="MIXFIRST"> F  </i>
     <i type="int" name="MAXMIX">   -45</i>
     <i name="WC">    100.00000000</i>
     <i type="int" name="INIMIX">     1</i>
     <i type="int" name="MIXPRE">     1</i>
     <i type="int" name="MREMOVE">     5</i>
    </separator>
   </separator>
   <separator name="electronic dipolcorrection" >
    <i type="logical" name="LDIPOL"> F  </i>
    <i type="logical" name="LMONO"> F  </i>
    <i type="int" name="IDIPOL">     0</i>
    <i name="EPSILON">      1.00000000</i>
    <v name="DIPOL">   -100.00000000   -100.00000000   -100.00000000</v>
    <i name="EFIELD">      0.00000000</i>
   </separator>
  </separator>
  <separator name="grids" >
   <i type="int" name="NGX">    36</i>
   <i type="int" name="NGY">    36</i>
   <i type="int" name="NGZ">   108</i>
   <i type="int" name="NGXF">    72</i>
   <i type="int" name="NGYF">    72</i>
   <i type="int" name="NGZF">   216</i>
   <i type="logical" name="ADDGRID"> F  </i>
  </separator>
  <separator name="ionic" >
   <i type="int" name="NSW">   100</i>
   <i type="int" name="IBRION">     2</i>
   <i type="int" name="MDALGO">     0</i>
   <i type="int" name="ISIF">     2</i>
   <i name="PSTRESS">      0.00000000</i>
   <i name="EDIFFG">     -0.01000000</i>
   <i type="int" name="NFREE">     1</i>
   <i name="POTIM">      0.50000000</i>
   <i name="SMASS">     -3.00000000</i>
   <i name="SCALEE">      1.00000000</i>
  </separator>
  <separator name="ionic md" >
   <i name="TEBEG">      0.00010000</i>
   <i name="TEEND">      0.00010000</i>
   <i type="int" name="NBLOCK">     1</i>
   <i type="int" name="KBLOCK">   100</i>
   <i type="int" name="NPACO">   256</i>
   <i name="APACO">     16.00000000</i>
  </separator>
  <separator name="symmetry" >
   <i type="int" name="ISYM">     2</i>
   <i name="SYMPREC">      0.00001000</i>
  </separator>
  <separator name="dos" >
   <i type="int" name="LORBIT">     0</i>
   <v name="RWIGS">     -1.00000000     -1.00000000</v>
   <i type="int" name="NEDOS">   301</i>
   <i name="EMIN">     10.00000000</i>
   <i name="EMAX">    -10.00000000</i>
   <i name="EFERMI">      0.00000000</i>
  </separator>
  <separator name="writing" >
   <i type="int" name="NWRITE">     2</i>
   <i type="logical" name="LWAVE"> F  </i>
   <i type="logical" name="LDOWNSAMPLE"> F  </i>
   <i type="logical" name="LCHARG"> F  </i>
   <i type="logical" name="LPARD"> F  </i>
   <i type="logical" name="LVTOT"> F  </i>
   <i type="logical" name="LVHAR"> F  </i>
   <i type="logical" name="LELF"> F  </i>
   <i type="logical" name="LOPTICS"> F  </i>
   <v name="STM">      0.00000000      0.00000000      0.00000000      0.00000000      0.00000000      0.00000000      0.00000000</v>
  </separator>
  <separator name="performance" >
   <i type="int" name="NPAR">    16</i>
   <i type="int" name="NSIM">     4</i>
   <i type="int" name="NBLK">    -1</i>
   <i type="logical" name="LPLANE"> T  </i>
   <i type="logical" name="LSCALAPACK"> T  </i>
   <i type="logical" name="LSCAAWARE"> F  </i>
   <i type="logical" name="LSCALU"> F  </i>
   <i type="logical" name="LASYNC"> F  </i>
   <i type="logical" name="LORBITALREAL"> F  </i>
  </separator>
  <separator name="miscellaneous" >
   <i type="int" name="IDIOT">     3</i>
   <i type="int" name="ISPECIAL">     0</i>
   <i type="logical" name="LMUSIC"> F  </i>
   <v name="POMASS">     10.81100000     12.01100000</v>
   <v name="DARWINR">      0.00000000      0.00000000</v>
   <v name="DARWINV">      1.00000000      1.00000000</v>
   <i type="logical" name="LCORR"> T  </i>
  </separator>
  <i type="logical" name="GGA_COMPAT"> T  </i>
  <i type="logical" name="LBERRY"> F  </i>
  <i type="int" name="ICORELEVEL">     0</i>
  <i type="logical" name="LDAU"> F  </i>
  <i type="int" name="I_CONSTRAINED_M">     0</i>
  <separator name="electronic exchange-correlation" >
   <i type="string" name="GGA">PE</i>
   <i type="int" name="VOSKOWN">     0</i>
   <i type="logical" name="LHFCALC"> F  </i>
   <i type="string" name="PRECFOCK"></i>
   <i type="logical" name="LSYMGRAD"> F  </i>
   <i type="logical" name="LHFONE"> F  </i>
   <i type="logical" name="LRHFCALC"> F  </i>
   <i type="logical" name="LTHOMAS"> F  </i>
   <i type="logical" name="LMODELHF"> F  </i>
   <i name="ENCUT4O">     -1.00000000</i>
   <i type="int" name="EXXOEP">     0</i>
   <i type="int" name="FOURORBIT">     0</i>
   <i name="AEXX">      0.00000000</i>
   <i name="HFALPHA">      0.00000000</i>
   <i name="MCALPHA">      0.00000000</i>
   <i name="ALDAX">      1.00000000</i>
   <i name="AGGAX">      1.00000000</i>
   <i name="ALDAC">      1.00000000</i>
   <i name="AGGAC">      1.00000000</i>
   <i type="int" name="NKREDX">     1</i>
   <i type="int" name="NKREDY">     1</i>
   <i type="int" name="NKREDZ">     1</i>
   <i type="logical" name="SHIFTRED"> F  </i>
   <i type="logical" name="ODDONLY"> F  </i>
   <i type="logical" name="EVENONLY"> F  </i>
   <i type="int" name="LMAXFOCK">     0</i>
   <i type="int" name="NMAXFOCKAE">     0</i>
   <i type="logical" name="LFOCKAEDFT"> F  </i>
   <i name="HFSCREEN">      0.00000000</i>
   <i name="HFSCREENC">      0.00000000</i>
   <i type="int" name="NBANDSGWLOW">     0</i>
  </separator>
  <separator name="vdW DFT" >
   <i type="logical" name="LUSE_VDW"> F  </i>
   <i name="Zab_VDW">     -0.84910000</i>
   <i name="PARAM1">      0.12340000</i>
   <i name="PARAM2">      1.00000000</i>
   <i name="PARAM3">      0.00000000</i>
  </separator>
  <separator name="model GW" >
   <i type="int" name="MODEL_GW">     0</i>
   <i name="MODEL_EPS0">     26.03131984</i>
   <i name="MODEL_ALPHA">      1.00000000</i>
  </separator>
  <separator name="linear response parameters" >
   <i type="logical" name="LEPSILON"> F  </i>
   <i type="logical" name="LRPA"> F  </i>
   <i type="logical" name="LNABLA"> F  </i>
   <i type="logical" name="LVEL"> F  </i>
   <i type="int" name="KINTER">     0</i>
   <i name="CSHIFT">      0.10000000</i>
   <i name="OMEGAMAX">     -1.00000000</i>
   <i name="DEG_THRESHOLD">      0.00200000</i>
   <i name="RTIME">     -0.10000000</i>
   <i name="WPLASMAI">      0.00000000</i>
   <v name="DFIELD">      0.00000000      0.00000000      0.00000000</v>
   <v name="WPLASMA">      0.00000000      0.00000000      0.00000000      0.00000000      0.00000000      0.00000000      0.00000000      0.00000000      0.00000000</v>
  </separator>
  <separator name="orbital magnetization" >
   <i type="logical" name="NUCIND"> F  </i>
   <v name="MAGPOS">      0.00000000      0.00000000      0.00000000</v>
   <i type="logical" name="LNICSALL"> T  </i>
   <i type="logical" name="ORBITALMAG"> F  </i>
   <i type="logical" name="LMAGBLOCH"> F  </i>
   <i type="logical" name="LCHIMAG"> F  </i>
   <i type="logical" name="LGAUGE"> T  </i>
   <i type="int" name="MAGATOM">     0</i>
   <v name="MAGDIPOL">      0.00000000      0.00000000      0.00000000</v>
   <v name="AVECCONST">      0.00000000      0.00000000      0.00000000</v>
  </separator>
  <separator name="response functions" >
   <i type="logical" name="LADDER"> F  </i>
   <i type="logical" name="LRPAFORCE"> F  </i>
   <i type="logical" name="LFXC"> F  </i>
   <i type="logical" name="LHARTREE"> T  </i>
   <i type="int" name="IBSE">     0</i>
   <v type="int" name="KPOINT">    -1     0     0     0</v>
   <i type="logical" name="LTCTE"> F  </i>
   <i type="logical" name="LTETE"> F  </i>
   <i type="logical" name="LTRIPLET"> F  </i>
   <i type="logical" name="LFXCEPS"> F  </i>
   <i type="logical" name="LFXHEG"> F  </i>
   <i type="int" name="NATURALO">     2</i>
   <i type="logical" name="L2ORDER"> F  </i>
   <i type="logical" name="LMP2LT"> F  </i>
   <i type="logical" name="LUSEW"> F  </i>
   <i name="ENCUTGW">     -2.00000000</i>
   <i name="ENCUTGWSOFT">     -2.00000000</i>
   <i name="ENCUTLF">     -1.00000000</i>
   <i type="int" name="LMAXMP2">    -1</i>
   <i name="SCISSOR">      0.00000000</i>
   <i type="int" name="NOMEGA">     0</i>
   <i type="int" name="NOMEGAR">     0</i>
   <i type="int" name="NBANDSGW">    -1</i>
   <i type="int" name="NBANDSO">    -1</i>
   <i type="int" name="NBANDSV">    -1</i>
   <i type="int" name="NELM">     1</i>
   <i type="int" name="NELMHF">     1</i>
   <i type="int" name="DIM">     3</i>
   <i type="int" name="ANTIRES">     0</i>
   <i name="OMEGAMAX">    -30.00000000</i>
   <i name="OMEGAMIN">    -30.00000000</i>
   <i name="OMEGATL">   -200.00000000</i>
   <i type="int" name="OMEGAGRID">   140</i>
   <i name="CSHIFT">     -0.10000000</i>
   <i type="logical" name="SELFENERGY"> F  </i>
   <i type="logical" name="LSPECTRAL"> F  </i>
   <i type="logical" name="LSPECTRALGW"> F  </i>
   <i type="logical" name="LSINGLES"> F  </i>
   <i type="logical" name="LFERMIGW"> F  </i>
   <i type="logical" name="ODDONLYGW"> F  </i>
   <i type="logical" name="EVENONLYGW"> F  </i>
   <i type="int" name="NKREDLFX">     1</i>
   <i type="int" name="NKREDLFY">     1</i>
   <i type="int" name="NKREDLFZ">     1</i>
   <i type="int" name="MAXMEM">  2800</i>
   <i type="int" name="TELESCOPE">     0</i>
   <i type="int" name="TAUPAR">     1</i>
   <i type="int" name="OMEGAPAR">    -1</i>
   <i name="LAMBDA">      1.00000000</i>
  </separator>
  <separator name="External order field" >
   <i name="OFIELD_KAPPA">      0.00000000</i>
   <v name="OFIELD_K">      0.00000000      0.00000000      0.00000000</v>
   <i name="OFIELD_Q6_NEAR">      0.00000000</i>
   <i name="OFIELD_Q6_FAR">      0.00000000</i>
   <i name="OFIELD_A">      0.00000000</i>
  </separator>
 </parameters>
 <atominfo>
  <atoms>       8 </atoms>
  <types>       2 </types>
  <array name="atoms" >
   <dimension dim="1">ion</dimension>
   <field type="string">element</field>
   <field type="int">atomtype</field>
   <set>
    <rc><c>B </c><c>   1</c></rc>
    <rc><c>B </c><c>   1</c></rc>
    <rc><c>C </c><c>   2</c></rc>
    <rc><c>C </c><c>   2</c></rc>
    <rc><c>C </c><c>   2</c></rc>
    <rc><c>C </c><c>   2</c></rc>
    <rc><c>C </c><c>   2</c></rc>
    <rc><c>C </c><c>   2</c></rc>
   </set>
  </array>
  <array name="atomtypes" >
   <dimension dim="1">type</dimension>
   <field type="int">atomspertype</field>
   <field type="string">element</field>
   <field>mass</field>
   <field>valence</field>
   <field type="string">pseudopotential</field>
   <set>
    <rc><c>   2</c><c>B </c><c>     10.81100000</c><c>      3.00000000</c><c>  PAW_PBE B 06Sep2000                   </c></rc>
    <rc><c>   6</c><c>C </c><c>     12.01100000</c><c>      4.00000000</c><c>  PAW_PBE C 08Apr2002                   </c></rc>
   </set>
  </array>
 </atominfo>
 <structure name="initialpos" >
  <crystal>
   <varray name="basis" >
    <v>       4.47648500       2.58450000       0.00000000 </v>
    <v>      -4.47648500       2.58450000       0.00000000 </v>
    <v>       0.00000000       0.00000000      15.00000000 </v>
   </varray>
   <i name="volume">    347.08426447 </i>
   <varray name="rec_basis" >
    <v>       0.11169478       0.19346102       0.00000000 </v>
    <v>      -0.11169478       0.19346102       0.00000000 </v>
    <v>       0.00000000       0.00000000       0.06666667 </v>
   </varray>
  </crystal>
  <varray name="positions" >
   <v>       0.33833034       0.66916432       0.25000000 </v>
   <v>       0.67165522       0.33584146       0.25000000 </v>
   <v>       0.16373946       0.31999962       0.25000000 </v>
   <v>       0.32250218       0.16126397       0.25000000 </v>
   <v>       0.16376430       0.84376384       0.25000000 </v>
   <v>       0.84623863       0.16123684       0.25000000 </v>
   <v>       0.68749850       0.84373000       0.25000000 </v>
   <v>       0.84626736       0.68499594       0.25000000 </v>
  </varray>
 </structure>
 <calculation>
  <scstep>
   <time name="dav">   33.86   33.87</time>
   <time name="total">   33.92   33.93</time>
   <energy>
    <i name="alphaZ">     14.61461864 </i>
    <i name="ewald">   2603.47533640 </i>
    <i name="hartreedc">  -3361.43975615 </i>
    <i name="XCdc">     91.18491800 </i>
    <i name="pawpsdc">    738.13200929 </i>
    <i name="pawaedc">   -739.83780425 </i>
    <i name="eentropy">     -0.01581135 </i>
    <i name="bandstr">   -190.41809154 </i>
    <i name="atom">   1025.20389953 </i>
    <i name="e_fr_energy">    180.89931857 </i>
    <i name="e_wo_entrp">    180.91512992 </i>
    <i name="e_0_energy">    180.90722424 </i>
   </energy>
  </scstep>
  <scstep>
   <time name="dav">   50.12   50.14</time>
   <time name="total">   50.13   50.14</time>
   <energy>
    <i name="e_fr_energy">    -50.39282550 </i>
    <i name="e_wo_entrp">    -50.39254090 </i>
    <i name="e_0_energy">    -50.39268320 </i>
   </energy>
  </scstep>
  <scstep>
   <time name="dav">   44.07   44.08</time>
   <time name="total">   44.07   44.08</time>
   <energy>
    <i name="e_fr_energy">    -72.93147634 </i>
    <i name="e_wo_entrp">    -72.93147634 </i>
    <i name="e_0_energy">    -72.93147634 </i>
   </energy>
  </scstep>
  <scstep>
   <time name="dav">   43.59   43.60</time>
   <time name="total">   43.59   43.60</time>
   <energy>
    <i name="e_fr_energy">    -73.46946046 </i>
    <i name="e_wo_entrp">    -73.46946046 </i>
    <i name="e_0_energy">    -73.46946046 </i>
   </energy>
  </scstep>
  <scstep>
   <time name="dav">   41.32   41.33</time>
   <time name="total">   42.75   42.76</time>
   <energy>
    <i name="e_fr_energy">    -73.48147504 </i>
    <i name="e_wo_entrp">    -73.48147504 </i>
    <i name="e_0_energy">    -73.48147504 </i>
   </energy>
  </scstep>
  <scstep>
   <time name="dav">   44.49   44.50</time>
   <time name="total">   45.97   45.99</time>
   <energy>
    <i name="e_fr_energy">    -68.97531904 </i>
    <i name="e_wo_entrp">    -68.97531904 </i>
    <i name="e_0_energy">    -68.97531904 </i>
   </energy>
  </scstep>
  <scstep>
   <time name="dav">   44.93   44.94</time>
   <time name="total">   46.42   46.43</time>
   <energy>
    <i name="e_fr_energy">    -67.33128046 </i>
    <i name="e_wo_entrp">    -67.33128046 </i>
    <i name="e_0_energy">    -67.33128046 </i>
   </energy>
  </scstep>
  <scstep>
   <time name="dav">   42.83   42.83</time>
   <time name="total">   44.32   44.32</time>
   <energy>
    <i name="e_fr_energy">    -67.25185386 </i>
    <i name="e_wo_entrp">    -67.25185385 </i>
    <i name="e_0_energy">    -67.25185386 </i>
   </energy>
  </scstep>
  <scstep>
   <time name="dav">   41.02   41.03</time>
   <time name="total">   42.50   42.51</time>
   <energy>
    <i name="e_fr_energy">    -67.23693877 </i>
    <i name="e_wo_entrp">    -67.23693876 </i>
    <i name="e_0_energy">    -67.23693877 </i>
   </energy>
  </scstep>
  <scstep>
   <time name="dav">   41.70   41.72</time>
   <time name="total">   43.19   43.21</time>
   <energy>
    <i name="e_fr_energy">    -67.22589219 </i>
    <i name="e_wo_entrp">    -67.22589216 </i>
    <i name="e_0_energy">    -67.22589217 </i>
   </energy>
  </scstep>
  <scstep>
   <time name="dav">   41.25   41.26</time>
   <time name="total">   42.74   42.75</time>
   <energy>
    <i name="e_fr_energy">    -67.22520886 </i>
    <i name="e_wo_entrp">    -67.22520882 </i>
    <i name="e_0_energy">    -67.22520884 </i>
   </energy>
  </scstep>
  <scstep>
   <time name="dav">   36.04   36.04</time>
   <time name="total">   37.52   37.53</time>
   <energy>
    <i name="e_fr_energy">    -67.22317152 </i>
    <i name="e_wo_entrp">    -67.22317148 </i>
    <i name="e_0_energy">    -67.22317150 </i>
   </energy>
  </scstep>
  <scstep>
   <time name="dav">   40.47   40.47</time>
   <time name="total">   41.95   41.96</time>
   <energy>
    <i name="e_fr_energy">    -67.22590569 </i>
    <i name="e_wo_entrp">    -67.22590564 </i>
    <i name="e_0_energy">    -67.22590567 </i>
   </energy>
  </scstep>
  <scstep>
   <time name="dav">   41.52   41.53</time>
   <time name="total">   43.01   43.02</time>
   <energy>
    <i name="e_fr_energy">    -67.22880470 </i>
    <i name="e_wo_entrp">    -67.22880466 </i>
    <i name="e_0_energy">    -67.22880468 </i>
   </energy>
  </scstep>
  <scstep>
   <time name="dav">   42.59   42.59</time>
   <time name="total">   44.07   44.08</time>
   <energy>
    <i name="e_fr_energy">    -67.22903992 </i>
    <i name="e_wo_entrp">    -67.22903988 </i>
    <i name="e_0_energy">    -67.22903990 </i>
   </energy>
  </scstep>
  <scstep>
   <time name="dav">   38.92   38.93</time>
   <time name="total">   40.41   40.42</time>
   <energy>
    <i name="e_fr_energy">    -67.22961004 </i>
    <i name="e_wo_entrp">    -67.22960999 </i>
    <i name="e_0_energy">    -67.22961001 </i>
   </energy>
  </scstep>
  <scstep>
   <time name="dav">   39.58   39.59</time>
   <time name="total">   41.07   41.07</time>
   <energy>
    <i name="e_fr_energy">    -67.22966426 </i>
    <i name="e_wo_entrp">    -67.22966422 </i>
    <i name="e_0_energy">    -67.22966424 </i>
   </energy>
  </scstep>
  <scstep>
   <time name="dav">   36.05   36.05</time>
   <time name="total">   37.54   37.54</time>
   <energy>
    <i name="e_fr_energy">    -67.22969063 </i>
    <i name="e_wo_entrp">    -67.22969058 </i>
    <i name="e_0_energy">    -67.22969060 </i>
   </energy>
  </scstep>
  <scstep>
   <time name="dav">   35.48   35.50</time>
   <time name="total">   36.97   36.98</time>
   <energy>
    <i name="e_fr_energy">    -67.22969216 </i>
    <i name="e_wo_entrp">    -67.22969212 </i>
    <i name="e_0_energy">    -67.22969214 </i>
   </energy>
  </scstep>
  <scstep>
   <time name="dav">   30.62   30.62</time>
   <time name="total">   32.10   32.11</time>
   <energy>
    <i name="e_fr_energy">    -67.22969325 </i>
    <i name="e_wo_entrp">    -67.22969320 </i>
    <i name="e_0_energy">    -67.22969323 </i>
   </energy>
  </scstep>
  <scstep>
   <time name="dav">   33.55   33.55</time>
   <time name="total">   33.61   33.61</time>
   <energy>
    <i name="alphaZ">     14.61461864 </i>
    <i name="ewald">   2603.47533640 </i>
    <i name="hartreedc">  -3498.85849779 </i>
    <i name="XCdc">     96.07904901 </i>
    <i name="pawpsdc">   2906.45313831 </i>
    <i name="pawaedc">  -2908.98564217 </i>
    <i name="eentropy">     -0.00000004 </i>
    <i name="bandstr">   -305.21159523 </i>
    <i name="atom">   1025.20389953 </i>
    <i name="e_fr_energy">    -67.22969335 </i>
    <i name="e_wo_entrp">    -67.22969330 </i>
    <i name="e_0_energy">    -67.22969332 </i>
   </energy>
  </scstep>
  <structure>
   <crystal>
    <varray name="basis" >
     <v>       4.47648500       2.58450000       0.00000000 </v>
     <v>      -4.47648500       2.58450000       0.00000000 </v>
     <v>       0.00000000       0.00000000      15.00000000 </v>
    </varray>
    <i name="volume">    347.08426447 </i>
    <varray name="rec_basis" >
     <v>       0.11169478       0.19346102       0.00000000 </v>
     <v>      -0.11169478       0.19346102       0.00000000 </v>
     <v>       0.00000000       0.00000000       0.06666667 </v>
    </varray>
   </crystal>
   <varray name="positions" >
    <v>       0.33833034       0.66916432       0.25000000 </v>
    <v>       0.67165522       0.33584146       0.25000000 </v>
    <v>       0.16373946       0.31999962       0.25000000 </v>
    <v>       0.32250218       0.16126397       0.25000000 </v>
    <v>       0.16376430       0.84376384       0.25000000 </v>
    <v>       0.84623863       0.16123684       0.25000000 </v>
    <v>       0.68749850       0.84373000       0.25000000 </v>
    <v>       0.84626736       0.68499594       0.25000000 </v>
   </varray>
  </structure>
  <varray name="forces" >
   <v>       0.00031597       0.00043570       0.00000000 </v>
   <v>       0.00425137       0.00025211       0.00000000 </v>
   <v>      -0.00014380       0.00012850       0.00000000 </v>
   <v>      -0.00002543      -0.00081977       0.00000000 </v>
   <v>       0.00116240      -0.00037447       0.00000000 </v>
   <v>      -0.00185587      -0.00022371       0.00000000 </v>
   <v>      -0.00142452       0.00138669       0.00000000 </v>
   <v>      -0.00228012      -0.00078505       0.00000000 </v>
  </varray>
  <varray name="stress" >
   <v>      -0.78641704       0.00227462       0.00000000 </v>
   <v>       0.00227463      -0.78177542       0.00000000 </v>
   <v>       0.00000000       0.00000000      -0.86922453 </v>
  </varray>
  <energy>
   <i name="e_fr_energy">    -67.90773014 </i>
   <i name="e_wo_entrp">    -67.90773011 </i>
   <i name="e_0_energy">     -0.00000004 </i>
  </energy>
  <time name="totalsc">  901.70  901.91</time>
  <eigenvalues>
   <array>
    <dimension dim="1">band</dimension>
    <dimension dim="2">kpoint</dimension>
    <dimension dim="3">spin</dimension>
    <field>eigene</field>
    <field>occ</field>
    <set>
     <set comment="spin 1">
      <set comment="kpoint 1">
       <r>  -19.8849    1.0000 </r>
       <r>  -15.9833    1.0000 </r>
       <r>  -15.9831    1.0000 </r>
       <r>  -13.6419    1.0000 </r>
       <r>  -13.6418    1.0000 </r>
       <r>  -12.5734    1.0000 </r>
       <r>  -11.2501    1.0000 </r>
       <r>   -8.6888    1.0000 </r>
       <r>   -8.4567    1.0000 </r>
       <r>   -6.3045    1.0000 </r>
       <r>   -6.3041    1.0000 </r>
       <r>   -4.4808    1.0000 </r>
       <r>   -4.4807    1.0000 </r>
       <r>   -3.7922    1.0000 </r>
       <r>   -3.7917    1.0000 </r>
       <r>   -1.9639    0.0000 </r>
       <r>   -0.2279    0.0000 </r>
       <r>   -0.2277    0.0000 </r>
       <r>    0.4316    0.0000 </r>
       <r>    0.8393    0.0000 </r>
       <r>    1.8420    0.0000 </r>
       <r>    2.2409    0.0000 </r>
       <r>    4.2242    0.0000 </r>
       <r>    4.8434    0.0000 </r>
       <r>    5.0087    0.0000 </r>
       <r>    5.0092    0.0000 </r>
       <r>    6.2958    0.0000 </r>
       <r>    6.7700    0.0000 </r>
       <r>    6.7707    0.0000 </r>
       <r>    7.8736    0.0000 </r>
       <r>    8.0491    0.0000 </r>
       <r>    8.1281    0.0000 </r>
      </set>
      <set comment="kpoint 2">
       <r>  -19.8808    1.0000 </r>
       <r>  -16.0041    1.0000 </r>
       <r>  -15.9899    1.0000 </r>
       <r>  -13.6474    1.0000 </r>
       <r>  -13.6266    1.0000 </r>
       <r>  -12.5531    1.0000 </r>
       <r>  -11.2253    1.0000 </r>
       <r>   -8.6826    1.0000 </r>
       <r>   -8.4652    1.0000 </r>
       <r>   -6.3232    1.0000 </r>
       <r>   -6.3080    1.0000 </r>
       <r>   -4.4998    1.0000 </r>
       <r>   -4.4840    1.0000 </r>
       <r>   -3.8138    1.0000 </r>
       <r>   -3.8023    1.0000 </r>
       <r>   -2.0007    0.0000 </r>
       <r>   -0.2186    0.0000 </r>
       <r>   -0.1735    0.0000 </r>
       <r>    0.4486    0.0000 </r>
       <r>    0.8471    0.0000 </r>
       <r>    1.8504    0.0000 </r>
       <r>    2.2487    0.0000 </r>
       <r>    4.2319    0.0000 </r>
       <r>    4.8518    0.0000 </r>
       <r>    5.0203    0.0000 </r>
       <r>    5.0336    0.0000 </r>
       <r>    6.3038    0.0000 </r>
       <r>    6.7729    0.0000 </r>
       <r>    6.7943    0.0000 </r>
       <r>    7.6486    0.0000 </r>
       <r>    7.8785    0.0000 </r>
       <r>    7.8975    0.0000 </r>
      </set>
      <set comment="kpoint 3">
       <r>  -19.8685    1.0000 </r>
       <r>  -16.0648    1.0000 </r>
       <r>  -16.0094    1.0000 </r>
       <r>  -13.6647    1.0000 </r>
       <r>  -13.5818    1.0000 </r>
       <r>  -12.4922    1.0000 </r>
       <r>  -11.1525    1.0000 </r>
       <r>   -8.6640    1.0000 </r>
       <r>   -8.4910    1.0000 </r>
       <r>   -6.3789    1.0000 </r>
       <r>   -6.3185    1.0000 </r>
       <r>   -4.5564    1.0000 </r>
       <r>   -4.4934    1.0000 </r>
       <r>   -3.8782    1.0000 </r>
       <r>   -3.8335    1.0000 </r>
       <r>   -2.0968    0.0000 </r>
       <r>   -0.1918    0.0000 </r>
       <r>   -0.0282    0.0000 </r>
       <r>    0.5022    0.0000 </r>
       <r>    0.8704    0.0000 </r>
       <r>    1.8757    0.0000 </r>
       <r>    2.2722    0.0000 </r>
       <r>    4.2549    0.0000 </r>
       <r>    4.8763    0.0000 </r>
       <r>    5.0533    0.0000 </r>
       <r>    5.1074    0.0000 </r>
       <r>    6.3241    0.0000 </r>
       <r>    6.7748    0.0000 </r>
       <r>    6.8659    0.0000 </r>
       <r>    7.2722    0.0000 </r>
       <r>    7.7001    0.0000 </r>
       <r>    7.7138    0.0000 </r>
      </set>
      <set comment="kpoint 4">
       <r>  -19.8483    1.0000 </r>
       <r>  -16.1593    1.0000 </r>
       <r>  -16.0399    1.0000 </r>
       <r>  -13.6948    1.0000 </r>
       <r>  -13.5094    1.0000 </r>
       <r>  -12.3915    1.0000 </r>
       <r>  -11.0360    1.0000 </r>
       <r>   -8.6331    1.0000 </r>
       <r>   -8.5349    1.0000 </r>
       <r>   -6.4699    1.0000 </r>
       <r>   -6.3332    1.0000 </r>
       <r>   -4.6482    1.0000 </r>
       <r>   -4.5085    1.0000 </r>
       <r>   -3.9841    1.0000 </r>
       <r>   -3.8844    1.0000 </r>
       <r>   -2.2249    0.0000 </r>
       <r>   -0.1479    0.0000 </r>
       <r>    0.1674    0.0000 </r>
       <r>    0.6030    0.0000 </r>
       <r>    0.9092    0.0000 </r>
       <r>    1.9182    0.0000 </r>
       <r>    2.3112    0.0000 </r>
       <r>    4.2933    0.0000 </r>
       <r>    4.9155    0.0000 </r>
       <r>    5.1051    0.0000 </r>
       <r>    5.2285    0.0000 </r>
       <r>    6.3335    0.0000 </r>
       <r>    6.7377    0.0000 </r>
       <r>    6.9654    0.0000 </r>
       <r>    6.9807    0.0000 </r>
       <r>    7.5173    0.0000 </r>
       <r>    7.5594    0.0000 </r>
      </set>
      <set comment="kpoint 5">
       <r>  -19.8202    1.0000 </r>
       <r>  -16.2800    1.0000 </r>
       <r>  -16.0788    1.0000 </r>
       <r>  -13.7367    1.0000 </r>
       <r>  -13.4122    1.0000 </r>
       <r>  -12.2542    1.0000 </r>
       <r>  -10.8812    1.0000 </r>
       <r>   -8.5981    1.0000 </r>
       <r>   -8.5900    1.0000 </r>
       <r>   -6.5934    1.0000 </r>
       <r>   -6.3487    1.0000 </r>
       <r>   -4.7718    1.0000 </r>
       <r>   -4.5283    1.0000 </r>
       <r>   -4.1289    1.0000 </r>
       <r>   -3.9533    1.0000 </r>
       <r>   -2.3626    0.0000 </r>
       <r>   -0.0891    0.0000 </r>
       <r>    0.3624    0.0000 </r>
       <r>    0.7736    0.0000 </r>
       <r>    0.9634    0.0000 </r>
       <r>    1.9785    0.0000 </r>
       <r>    2.3658    0.0000 </r>
       <r>    4.3469    0.0000 </r>
       <r>    4.9678    0.0000 </r>
       <r>    5.1709    0.0000 </r>
       <r>    5.3946    0.0000 </r>
       <r>    6.2149    0.0000 </r>
       <r>    6.6315    0.0000 </r>
       <r>    6.8840    0.0000 </r>
       <r>    7.1174    0.0000 </r>
       <r>    7.2277    0.0000 </r>
       <r>    7.4256    0.0000 </r>
      </set>
      <set comment="kpoint 6">
       <r>  -19.7848    1.0000 </r>
       <r>  -16.4190    1.0000 </r>
       <r>  -16.1234    1.0000 </r>
       <r>  -13.7876    1.0000 </r>
       <r>  -13.2937    1.0000 </r>
       <r>  -12.0859    1.0000 </r>
       <r>  -10.6937    1.0000 </r>
       <r>   -8.6814    1.0000 </r>
       <r>   -8.5349    1.0000 </r>
       <r>   -6.7460    1.0000 </r>
       <r>   -6.3611    1.0000 </r>
       <r>   -4.9222    1.0000 </r>
       <r>   -4.5520    1.0000 </r>
       <r>   -4.3094    1.0000 </r>
       <r>   -4.0381    1.0000 </r>
       <r>   -2.4965    0.0000 </r>
       <r>   -0.0170    0.0000 </r>
       <r>    0.5257    0.0000 </r>
       <r>    1.0247    0.0000 </r>
       <r>    1.0330    0.0000 </r>
       <r>    2.0577    0.0000 </r>
       <r>    2.4359    0.0000 </r>
       <r>    4.4158    0.0000 </r>
       <r>    5.0322    0.0000 </r>
       <r>    5.2446    0.0000 </r>
       <r>    5.6022    0.0000 </r>
       <r>    5.9103    0.0000 </r>
       <r>    6.6445    0.0000 </r>
       <r>    6.8387    0.0000 </r>
       <r>    6.8809    0.0000 </r>
       <r>    7.1179    0.0000 </r>
       <r>    7.3127    0.0000 </r>
      </set>
      <set comment="kpoint 7">
       <r>  -19.7426    1.0000 </r>
       <r>  -16.5693    1.0000 </r>
       <r>  -16.1710    1.0000 </r>
       <r>  -13.8438    1.0000 </r>
       <r>  -13.1572    1.0000 </r>
       <r>  -11.8926    1.0000 </r>
       <r>  -10.4785    1.0000 </r>
       <r>   -8.7851    1.0000 </r>
       <r>   -8.4682    1.0000 </r>
       <r>   -6.9236    1.0000 </r>
       <r>   -6.3668    1.0000 </r>
       <r>   -5.0940    1.0000 </r>
       <r>   -4.5782    1.0000 </r>
       <r>   -4.5224    1.0000 </r>
       <r>   -4.1360    1.0000 </r>
       <r>   -2.6201    0.0000 </r>
       <r>    0.0656    0.0000 </r>
       <r>    0.6670    0.0000 </r>
       <r>    1.1179    0.0000 </r>
       <r>    1.3294    0.0000 </r>
       <r>    2.1589    0.0000 </r>
       <r>    2.5215    0.0000 </r>
       <r>    4.4998    0.0000 </r>
       <r>    5.1069    0.0000 </r>
       <r>    5.3179    0.0000 </r>
       <r>    5.5625    0.0000 </r>
       <r>    5.8467    0.0000 </r>
       <r>    6.4619    0.0000 </r>
       <r>    6.6859    0.0000 </r>
       <r>    6.8569    0.0000 </r>
       <r>    6.9957    0.0000 </r>
       <r>    7.0873    0.0000 </r>
      </set>
      <set comment="kpoint 8">
       <r>  -19.6943    1.0000 </r>
       <r>  -16.7249    1.0000 </r>
       <r>  -16.2192    1.0000 </r>
       <r>  -13.9016    1.0000 </r>
       <r>  -13.0062    1.0000 </r>
[...]
       <r>  -19.3303    1.0000 </r>
       <r>  -17.5233    1.0000 </r>
       <r>  -16.5788    1.0000 </r>
       <r>  -13.9761    1.0000 </r>
       <r>  -12.1202    1.0000 </r>
       <r>  -10.1498    1.0000 </r>
       <r>   -9.8367    1.0000 </r>
       <r>   -8.7868    1.0000 </r>
       <r>   -7.9690    1.0000 </r>
       <r>   -7.6731    1.0000 </r>
       <r>   -6.7873    1.0000 </r>
       <r>   -6.4586    1.0000 </r>
       <r>   -6.2327    1.0000 </r>
       <r>   -5.0849    1.0000 </r>
       <r>   -5.0096    1.0000 </r>
       <r>   -2.8480    0.0000 </r>
       <r>    0.1995    0.0000 </r>
       <r>    2.0455    0.0000 </r>
       <r>    2.2899    0.0000 </r>
       <r>    3.1787    0.0000 </r>
       <r>    3.2318    0.0000 </r>
       <r>    3.7077    0.0000 </r>
       <r>    4.0254    0.0000 </r>
       <r>    4.4432    0.0000 </r>
       <r>    4.6653    0.0000 </r>
       <r>    5.2930    0.0000 </r>
       <r>    5.6319    0.0000 </r>
       <r>    5.8557    0.0000 </r>
       <r>    5.8793    0.0000 </r>
       <r>    6.2604    0.0000 </r>
       <r>    6.3082    0.0000 </r>
       <r>    6.6985    0.0000 </r>
      </set>
      <set comment="kpoint 480">
       <r>  -19.3240    1.0000 </r>
       <r>  -17.5657    1.0000 </r>
       <r>  -16.5128    1.0000 </r>
       <r>  -14.0869    1.0000 </r>
       <r>  -11.9917    1.0000 </r>
       <r>  -10.0776    1.0000 </r>
       <r>   -9.8607    1.0000 </r>
       <r>   -8.9336    1.0000 </r>
       <r>   -7.8873    1.0000 </r>
       <r>   -7.6476    1.0000 </r>
       <r>   -6.9269    1.0000 </r>
       <r>   -6.5384    1.0000 </r>
       <r>   -6.1668    1.0000 </r>
       <r>   -5.0370    1.0000 </r>
       <r>   -4.8804    1.0000 </r>
       <r>   -3.0032    0.0000 </r>
       <r>    0.4293    0.0000 </r>
       <r>    1.8255    0.0000 </r>
       <r>    2.3657    0.0000 </r>
       <r>    3.0722    0.0000 </r>
       <r>    3.2471    0.0000 </r>
       <r>    3.7848    0.0000 </r>
       <r>    3.9086    0.0000 </r>
       <r>    4.5029    0.0000 </r>
       <r>    4.6185    0.0000 </r>
       <r>    5.5037    0.0000 </r>
       <r>    5.6558    0.0000 </r>
       <r>    5.8161    0.0000 </r>
       <r>    5.8669    0.0000 </r>
       <r>    6.3486    0.0000 </r>
       <r>    6.4407    0.0000 </r>
       <r>    6.5694    0.0000 </r>
      </set>
      <set comment="kpoint 481">
       <r>  -19.3180    1.0000 </r>
       <r>  -17.5957    1.0000 </r>
       <r>  -16.4694    1.0000 </r>
       <r>  -14.1592    1.0000 </r>
       <r>  -11.9036    1.0000 </r>
       <r>  -10.0139    1.0000 </r>
       <r>   -9.8606    1.0000 </r>
       <r>   -9.0766    1.0000 </r>
       <r>   -7.7672    1.0000 </r>
       <r>   -7.6235    1.0000 </r>
       <r>   -7.0808    1.0000 </r>
       <r>   -6.5976    1.0000 </r>
       <r>   -6.1169    1.0000 </r>
       <r>   -5.0104    1.0000 </r>
       <r>   -4.7886    1.0000 </r>
       <r>   -3.1138    0.0000 </r>
       <r>    0.6234    0.0000 </r>
       <r>    1.6440    0.0000 </r>
       <r>    2.4568    0.0000 </r>
       <r>    2.9278    0.0000 </r>
       <r>    3.3326    0.0000 </r>
       <r>    3.7814    0.0000 </r>
       <r>    3.8773    0.0000 </r>
       <r>    4.3560    0.0000 </r>
       <r>    4.8069    0.0000 </r>
       <r>    5.5615    0.0000 </r>
       <r>    5.5621    0.0000 </r>
       <r>    5.8521    0.0000 </r>
       <r>    6.0570    0.0000 </r>
       <r>    6.3887    0.0000 </r>
       <r>    6.3929    0.0000 </r>
       <r>    6.7076    0.0000 </r>
      </set>
     </set>
    </set>
   </array>
  </eigenvalues>
  <separator name="orbital magnetization" >
   <v name="MAGDIPOLOUT">      0.00000000      0.00000000      0.00000000</v>
  </separator>
  <dos>
   <i name="efermi">     -3.47668245 </i>
   <total>
    <array>
     <dimension dim="1">gridpoints</dimension>
     <dimension dim="2">spin</dimension>
     <field>energy</field>
     <field>total</field>
     <field>integrated</field>
     <set>
      <set comment="spin 1">
       <r>   -21.2855     0.0000     0.0000 </r>
       <r>   -21.1828     0.0000     0.0000 </r>
       <r>   -21.0801     0.0000     0.0000 </r>
       <r>   -20.9774     0.0000     0.0000 </r>
       <r>   -20.8747     0.0000     0.0000 </r>
       <r>   -20.7719     0.0000     0.0000 </r>
       <r>   -20.6692     0.0000     0.0000 </r>
       <r>   -20.5665     0.0000     0.0000 </r>
       <r>   -20.4638     0.0000     0.0000 </r>
       <r>   -20.3611     0.0000     0.0000 </r>
       <r>   -20.2584     0.0000     0.0000 </r>
       <r>   -20.1557     0.0000     0.0000 </r>
       <r>   -20.0529     0.0037     0.0004 </r>
       <r>   -19.9502     0.1199     0.0127 </r>
       <r>   -19.8475     0.8108     0.0960 </r>
       <r>   -19.7448     1.7138     0.2720 </r>
       <r>   -19.6421     2.0797     0.4856 </r>
       <r>   -19.5394     2.3428     0.7263 </r>
       <r>   -19.4367     2.8791     1.0220 </r>
       <r>   -19.3339     3.9944     1.4323 </r>
       <r>   -19.2312     3.9247     1.8354 </r>
       <r>   -19.1285     1.4561     1.9849 </r>
       <r>   -19.0258     0.1437     1.9997 </r>
       <r>   -18.9231     0.0029     2.0000 </r>
       <r>   -18.8204     0.0000     2.0000 </r>
       <r>   -18.7177     0.0000     2.0000 </r>
       <r>   -18.6149     0.0000     2.0000 </r>
       <r>   -18.5122     0.0000     2.0000 </r>
       <r>   -18.4095     0.0000     2.0000 </r>
       <r>   -18.3068     0.0000     2.0000 </r>
       <r>   -18.2041     0.0000     2.0000 </r>
       <r>   -18.1014     0.0000     2.0000 </r>
       <r>   -17.9987     0.0000     2.0000 </r>
       <r>   -17.8959     0.0000     2.0000 </r>
       <r>   -17.7932     0.0036     2.0004 </r>
       <r>   -17.6905     0.1359     2.0143 </r>
       <r>   -17.5878     1.0580     2.1230 </r>
       <r>   -17.4851     2.5273     2.3826 </r>
       <r>   -17.3824     3.2261     2.7140 </r>
       <r>   -17.2797     2.7297     2.9943 </r>
       <r>   -17.1769     1.9705     3.1967 </r>
       <r>   -17.0742     1.8459     3.3863 </r>
       <r>   -16.9715     1.9117     3.5827 </r>
       <r>   -16.8688     2.0100     3.7892 </r>
       <r>   -16.7661     2.1477     4.0098 </r>
       <r>   -16.6634     2.3615     4.2523 </r>
       <r>   -16.5607     2.7744     4.5373 </r>
       <r>   -16.4579     3.4447     4.8911 </r>
       <r>   -16.3552     3.3957     5.2399 </r>
       <r>   -16.2525     2.5974     5.5067 </r>
       <r>   -16.1498     2.0551     5.7178 </r>
       <r>   -16.0471     1.6438     5.8866 </r>
       <r>   -15.9444     0.9092     5.9800 </r>
       <r>   -15.8417     0.1859     5.9991 </r>
       <r>   -15.7389     0.0088     6.0000 </r>
       <r>   -15.6362     0.0001     6.0000 </r>
       <r>   -15.5335     0.0000     6.0000 </r>
       <r>   -15.4308     0.0000     6.0000 </r>
       <r>   -15.3281     0.0000     6.0000 </r>
       <r>   -15.2254     0.0000     6.0000 </r>
       <r>   -15.1227     0.0000     6.0000 </r>
       <r>   -15.0199     0.0000     6.0000 </r>
       <r>   -14.9172     0.0000     6.0000 </r>
       <r>   -14.8145     0.0000     6.0000 </r>
       <r>   -14.7118     0.0000     6.0000 </r>
       <r>   -14.6091     0.0000     6.0000 </r>
       <r>   -14.5064     0.0000     6.0000 </r>
       <r>   -14.4037     0.0004     6.0000 </r>
       <r>   -14.3009     0.0301     6.0031 </r>
       <r>   -14.1982     0.4124     6.0455 </r>
       <r>   -14.0955     1.4266     6.1920 </r>
       <r>   -13.9928     2.1035     6.4081 </r>
       <r>   -13.8901     2.4288     6.6576 </r>
       <r>   -13.7874     2.9980     6.9655 </r>
       <r>   -13.6847     3.5336     7.3284 </r>
       <r>   -13.5819     2.7445     7.6103 </r>
       <r>   -13.4792     1.8554     7.8009 </r>
       <r>   -13.3765     1.5454     7.9597 </r>
       <r>   -13.2738     1.4550     8.1091 </r>
       <r>   -13.1711     1.3822     8.2511 </r>
       <r>   -13.0684     1.3246     8.3871 </r>
       <r>   -12.9657     1.2810     8.5187 </r>
       <r>   -12.8629     1.2741     8.6496 </r>
       <r>   -12.7602     1.4347     8.7969 </r>
       <r>   -12.6575     1.8559     8.9876 </r>
       <r>   -12.5548     2.0083     9.1939 </r>
       <r>   -12.4521     1.8696     9.3859 </r>
       <r>   -12.3494     1.7515     9.5658 </r>
       <r>   -12.2467     1.6094     9.7311 </r>
       <r>   -12.1439     1.5128     9.8865 </r>
       <r>   -12.0412     1.4199    10.0323 </r>
       <r>   -11.9385     1.3199    10.1679 </r>
       <r>   -11.8358     1.0033    10.2710 </r>
       <r>   -11.7331     0.5922    10.3318 </r>
       <r>   -11.6304     0.4433    10.3773 </r>
       <r>   -11.5277     0.4761    10.4262 </r>
       <r>   -11.4249     0.4379    10.4712 </r>
       <r>   -11.3222     0.5498    10.5277 </r>
       <r>   -11.2195     0.5580    10.5850 </r>
       <r>   -11.1168     0.8520    10.6725 </r>
       <r>   -11.0141     0.8095    10.7556 </r>
       <r>   -10.9114     1.0097    10.8594 </r>
       <r>   -10.8087     1.3266    10.9956 </r>
       <r>   -10.7059     1.4592    11.1455 </r>
       <r>   -10.6032     1.7566    11.3259 </r>
       <r>   -10.5005     1.6631    11.4967 </r>
       <r>   -10.3978     2.0262    11.7049 </r>
       <r>   -10.2951     2.1963    11.9305 </r>
       <r>   -10.1924     2.2696    12.1636 </r>
       <r>   -10.0897     1.6762    12.3357 </r>
       <r>    -9.9869     1.3317    12.4725 </r>
       <r>    -9.8842     1.6379    12.6408 </r>
       <r>    -9.7815     2.6531    12.9133 </r>
       <r>    -9.6788     2.6703    13.1876 </r>
       <r>    -9.5761     2.2287    13.4165 </r>
       <r>    -9.4734     2.0851    13.6306 </r>
       <r>    -9.3707     1.8380    13.8194 </r>
       <r>    -9.2679     1.8940    14.0140 </r>
       <r>    -9.1652     1.9685    14.2162 </r>
       <r>    -9.0625     2.1677    14.4388 </r>
       <r>    -8.9598     2.4465    14.6901 </r>
       <r>    -8.8571     2.6293    14.9602 </r>
       <r>    -8.7544     2.4661    15.2135 </r>
       <r>    -8.6517     2.6714    15.4879 </r>
       <r>    -8.5489     2.9805    15.7940 </r>
       <r>    -8.4462     2.8312    16.0848 </r>
       <r>    -8.3435     2.3252    16.3236 </r>
       <r>    -8.2408     2.0605    16.5353 </r>
       <r>    -8.1381     1.9995    16.7407 </r>
       <r>    -8.0354     2.4672    16.9941 </r>
       <r>    -7.9327     3.1633    17.3190 </r>
       <r>    -7.8299     3.9850    17.7283 </r>
       <r>    -7.7272     4.4173    18.1820 </r>
       <r>    -7.6245     4.3350    18.6273 </r>
       <r>    -7.5218     3.8983    19.0277 </r>
       <r>    -7.4191     2.5879    19.2935 </r>
       <r>    -7.3164     1.7360    19.4718 </r>
       <r>    -7.2137     2.0028    19.6776 </r>
       <r>    -7.1109     2.0888    19.8921 </r>
       <r>    -7.0082     1.7542    20.0723 </r>
       <r>    -6.9055     1.6159    20.2383 </r>
       <r>    -6.8028     1.6255    20.4052 </r>
       <r>    -6.7001     1.8528    20.5955 </r>
       <r>    -6.5974     2.6867    20.8715 </r>
       <r>    -6.4947     4.2065    21.3036 </r>
       <r>    -6.3919     6.7975    22.0018 </r>
       <r>    -6.2892     7.9468    22.8180 </r>
       <r>    -6.1865     5.8085    23.4146 </r>
       <r>    -6.0838     3.9474    23.8201 </r>
       <r>    -5.9811     2.6997    24.0974 </r>
       <r>    -5.8784     2.3295    24.3367 </r>
       <r>    -5.7757     2.3673    24.5798 </r>
       <r>    -5.6729     2.4309    24.8295 </r>
       <r>    -5.5702     2.5260    25.0890 </r>
       <r>    -5.4675     2.6542    25.3616 </r>
       <r>    -5.3648     2.7683    25.6459 </r>
       <r>    -5.2621     2.9889    25.9529 </r>
       <r>    -5.1594     3.2411    26.2858 </r>
       <r>    -5.0567     3.7179    26.6677 </r>
       <r>    -4.9539     4.1710    27.0962 </r>
       <r>    -4.8512     4.3566    27.5436 </r>
       <r>    -4.7485     4.7209    28.0285 </r>
       <r>    -4.6458     4.6364    28.5048 </r>
       <r>    -4.5431     3.9422    28.9097 </r>
       <r>    -4.4404     2.8094    29.1983 </r>
       <r>    -4.3377     1.6103    29.3637 </r>
       <r>    -4.2349     1.2671    29.4938 </r>
       <r>    -4.1322     1.2084    29.6179 </r>
       <r>    -4.0295     1.1630    29.7374 </r>
       <r>    -3.9268     1.1172    29.8521 </r>
       <r>    -3.8241     0.9442    29.9491 </r>
       <r>    -3.7214     0.4337    29.9937 </r>
       <r>    -3.6187     0.0601    29.9998 </r>
       <r>    -3.5159     0.0017    30.0000 </r>
       <r>    -3.4132     0.0000    30.0000 </r>
       <r>    -3.3105     0.0050    30.0005 </r>
       <r>    -3.2078     0.1256    30.0134 </r>
       <r>    -3.1051     0.6989    30.0852 </r>
       <r>    -3.0024     1.3338    30.2222 </r>
       <r>    -2.8997     1.5918    30.3857 </r>
       <r>    -2.7969     1.8634    30.5771 </r>
       <r>    -2.6942     2.2822    30.8115 </r>
       <r>    -2.5915     2.7237    31.0913 </r>
       <r>    -2.4888     2.2412    31.3215 </r>
       <r>    -2.3861     1.6160    31.4875 </r>
       <r>    -2.2834     1.2441    31.6153 </r>
       <r>    -2.1807     1.0183    31.7198 </r>
       <r>    -2.0779     0.8222    31.8043 </r>
       <r>    -1.9752     0.6562    31.8717 </r>
       <r>    -1.8725     0.4297    31.9158 </r>
       <r>    -1.7698     0.3113    31.9478 </r>
       <r>    -1.6671     0.2192    31.9703 </r>
       <r>    -1.5644     0.1595    31.9867 </r>
       <r>    -1.4617     0.0899    31.9960 </r>
       <r>    -1.3589     0.0432    32.0004 </r>
       <r>    -1.2562     0.0541    32.0060 </r>
       <r>    -1.1535     0.1026    32.0165 </r>
       <r>    -1.0508     0.1840    32.0354 </r>
       <r>    -0.9481     0.2334    32.0594 </r>
       <r>    -0.8454     0.3405    32.0943 </r>
       <r>    -0.7427     0.3846    32.1338 </r>
       <r>    -0.6399     0.5252    32.1878 </r>
       <r>    -0.5372     0.5807    32.2474 </r>
       <r>    -0.4345     0.7768    32.3272 </r>
       <r>    -0.3318     0.9212    32.4218 </r>
       <r>    -0.2291     1.5860    32.5847 </r>
       <r>    -0.1264     2.7259    32.8647 </r>
       <r>    -0.0237     2.9641    33.1692 </r>
       <r>     0.0791     2.1733    33.3924 </r>
       <r>     0.1818     1.6862    33.5656 </r>
       <r>     0.2845     1.4837    33.7180 </r>
       <r>     0.3872     1.3490    33.8566 </r>
       <r>     0.4899     1.4500    34.0055 </r>
       <r>     0.5926     1.5192    34.1616 </r>
       <r>     0.6953     1.3526    34.3005 </r>
       <r>     0.7981     1.1401    34.4176 </r>
       <r>     0.9008     1.3827    34.5596 </r>
       <r>     1.0035     1.7606    34.7405 </r>
       <r>     1.1062     1.8863    34.9342 </r>
       <r>     1.2089     1.9444    35.1339 </r>
       <r>     1.3116     2.0006    35.3394 </r>
       <r>     1.4143     2.1131    35.5565 </r>
       <r>     1.5171     2.2872    35.7914 </r>
       <r>     1.6198     2.4068    36.0386 </r>
       <r>     1.7225     2.3906    36.2842 </r>
       <r>     1.8252     2.3949    36.5302 </r>
       <r>     1.9279     2.7843    36.8162 </r>
       <r>     2.0306     2.9896    37.1232 </r>
       <r>     2.1333     3.0368    37.4352 </r>
       <r>     2.2361     3.1585    37.7596 </r>
       <r>     2.3388     3.6764    38.1372 </r>
       <r>     2.4415     3.8574    38.5334 </r>
       <r>     2.5442     3.8729    38.9312 </r>
       <r>     2.6469     3.8572    39.3274 </r>
       <r>     2.7496     3.8759    39.7255 </r>
       <r>     2.8523     3.7821    40.1140 </r>
       <r>     2.9551     3.8755    40.5121 </r>
       <r>     3.0578     3.7914    40.9015 </r>
       <r>     3.1605     3.7875    41.2905 </r>
       <r>     3.2632     3.8455    41.6855 </r>
       <r>     3.3659     3.7421    42.0699 </r>
       <r>     3.4686     3.8547    42.4658 </r>
       <r>     3.5713     3.7368    42.8496 </r>
       <r>     3.6741     3.8102    43.2410 </r>
       <r>     3.7768     3.8120    43.6325 </r>
       <r>     3.8795     3.8285    44.0258 </r>
       <r>     3.9822     4.1661    44.4537 </r>
       <r>     4.0849     3.7710    44.8410 </r>
       <r>     4.1876     3.3596    45.1861 </r>
       <r>     4.2903     3.2663    45.5216 </r>
       <r>     4.3931     4.2703    45.9602 </r>
       <r>     4.4958     5.0234    46.4762 </r>
       <r>     4.5985     4.7146    46.9605 </r>
       <r>     4.7012     4.7810    47.4516 </r>
       <r>     4.8039     5.0603    47.9713 </r>
       <r>     4.9066     5.3790    48.5238 </r>
       <r>     5.0093     5.8803    49.1278 </r>
       <r>     5.1121     6.2308    49.7678 </r>
       <r>     5.2148     6.4877    50.4342 </r>
       <r>     5.3175     7.1453    51.1681 </r>
       <r>     5.4202     7.5420    51.9428 </r>
       <r>     5.5229     8.1217    52.7770 </r>
       <r>     5.6256     7.4337    53.5405 </r>
       <r>     5.7283     6.0847    54.1655 </r>
       <r>     5.8311     6.5966    54.8431 </r>
       <r>     5.9338     7.9696    55.6617 </r>
       <r>     6.0365     7.8359    56.4665 </r>
       <r>     6.1392     7.1016    57.1960 </r>
       <r>     6.2419     6.8075    57.8952 </r>
       <r>     6.3446     7.3736    58.6526 </r>
       <r>     6.4473     7.3148    59.4039 </r>
       <r>     6.5501     7.0674    60.1298 </r>
       <r>     6.6528     6.1196    60.7584 </r>
       <r>     6.7555     6.3438    61.4100 </r>
       <r>     6.8582     7.0138    62.1304 </r>
       <r>     6.9609     6.1424    62.7613 </r>
       <r>     7.0636     4.5019    63.2237 </r>
       <r>     7.1663     2.6877    63.4998 </r>
       <r>     7.2691     1.3878    63.6423 </r>
       <r>     7.3718     1.0885    63.7541 </r>
       <r>     7.4745     0.7474    63.8309 </r>
       <r>     7.5772     0.4353    63.8756 </r>
       <r>     7.6799     0.3214    63.9086 </r>
       <r>     7.7826     0.2649    63.9358 </r>
       <r>     7.8853     0.2791    63.9645 </r>
       <r>     7.9881     0.1864    63.9837 </r>
       <r>     8.0908     0.0930    63.9932 </r>
       <r>     8.1935     0.0552    63.9989 </r>
       <r>     8.2962     0.0105    64.0000 </r>
       <r>     8.3989     0.0004    64.0000 </r>
       <r>     8.5016     0.0000    64.0000 </r>
       <r>     8.6043     0.0000    64.0000 </r>
       <r>     8.7071     0.0000    64.0000 </r>
       <r>     8.8098     0.0000    64.0000 </r>
       <r>     8.9125     0.0000    64.0000 </r>
       <r>     9.0152     0.0000    64.0000 </r>
       <r>     9.1179     0.0000    64.0000 </r>
       <r>     9.2206     0.0000    64.0000 </r>
       <r>     9.3233     0.0000    64.0000 </r>
       <r>     9.4261     0.0000    64.0000 </r>
       <r>     9.5288     0.0000    64.0000 </r>
      </set>
     </set>
    </array>
   </total>
  </dos>
 </calculation>
 <structure name="finalpos" >
  <crystal>
   <varray name="basis" >
    <v>       4.47648500       2.58450000       0.00000000 </v>
    <v>      -4.47648500       2.58450000       0.00000000 </v>
    <v>       0.00000000       0.00000000      15.00000000 </v>
   </varray>
   <i name="volume">    347.08426447 </i>
   <varray name="rec_basis" >
    <v>       0.11169478       0.19346102       0.00000000 </v>
    <v>      -0.11169478       0.19346102       0.00000000 </v>
    <v>       0.00000000       0.00000000       0.06666667 </v>
   </varray>
  </crystal>
  <varray name="positions" >
   <v>       0.33833034       0.66916432       0.25000000 </v>
   <v>       0.67165522       0.33584146       0.25000000 </v>
   <v>       0.16373946       0.31999962       0.25000000 </v>
   <v>       0.32250218       0.16126397       0.25000000 </v>
   <v>       0.16376430       0.84376384       0.25000000 </v>
   <v>       0.84623863       0.16123684       0.25000000 </v>
   <v>       0.68749850       0.84373000       0.25000000 </v>
   <v>       0.84626736       0.68499594       0.25000000 </v>
  </varray>
 </structure>
</modeling>
