Lattice                                 
           1
     4.363036    2.519000    0.000000
    -4.363036    2.519000    0.000000
     0.000000    0.000000   15.000000
   B    C 
     2    14
Direct configuration=     1
   0.33833034  0.66916432  0.10000000
   0.67165522  0.33584146  0.10000000
   0.16373946  0.31999962  0.10000000
   0.32250218  0.16126397  0.10000000
   0.16376430  0.84376384  0.10000000
   0.84623863  0.16123684  0.10000000
   0.68749850  0.84373000  0.10000000
   0.84626736  0.68499594  0.10000000
   0.16666600  0.33333300  0.32880000
   0.33333300  0.16666600  0.32880000
   0.16666600  0.83333300  0.32880000
   0.33333300  0.66666600  0.32880000
   0.66666600  0.33333300  0.32880000
   0.83333300  0.16666600  0.32880000
   0.66666600  0.83333300  0.32880000
   0.83333300  0.66666600  0.32880000
Direct configuration=     2
   0.33832834  0.66916300  0.10014647
   0.67167632  0.33581240  0.10014647
   0.16713651  0.32680394  0.09994716
   0.32929983  0.16465896  0.09994681
   0.16716716  0.84035075  0.09994718
   0.84282746  0.16463662  0.09994755
   0.68071836  0.84035942  0.09994774
   0.84285239  0.67821597  0.09994754
   0.16636100  0.33271935  0.32887082
   0.33271879  0.16635998  0.32887141
   0.16636104  0.83363956  0.32887081
   0.33332700  0.66666409  0.32860120
   0.66666154  0.33332976  0.32860120
   0.83363920  0.16636185  0.32886946
   0.66727787  0.83363791  0.32886872
   0.83363917  0.66727845  0.32886948
Direct configuration=     3
   0.33832980  0.66916397  0.10003944
   0.67166090  0.33583364  0.10003944
   0.16465413  0.32183170  0.09998577
   0.32433247  0.16217808  0.09998568
   0.16468053  0.84284486  0.09998578
   0.84532017  0.16215224  0.09998588
   0.68567293  0.84282247  0.09998593
   0.84534787  0.68317042  0.09998587
   0.16658388  0.33316777  0.32881907
   0.33316762  0.16658360  0.32881923
   0.16658389  0.83341554  0.32881907
   0.33333138  0.66666549  0.32874647
   0.66666480  0.33333213  0.32874647
   0.83341545  0.16658411  0.32881870
   0.66683075  0.83341510  0.32881850
   0.83341544  0.66683090  0.32881871
Direct configuration=     4
   0.33833486  0.66916456  0.10013901
   0.67166485  0.33583044  0.10013899
   0.16464821  0.32181858  0.09994987
   0.32432145  0.16216678  0.09994954
   0.16466645  0.84284760  0.09994988
   0.84533743  0.16215412  0.09995034
   0.68568102  0.84283655  0.09995047
   0.84535369  0.68318321  0.09995033
   0.16654796  0.33309771  0.32886481
   0.33309694  0.16654816  0.32886538
   0.16654796  0.83344994  0.32886481
   0.33333011  0.66666474  0.32861837
   0.66666343  0.33333154  0.32861837
   0.83344925  0.16654878  0.32886351
   0.66689913  0.83344940  0.32886280
   0.83344927  0.66689987  0.32886352
Direct configuration=     5
   0.33833665  0.66916477  0.10017414
   0.67166625  0.33582932  0.10017412
   0.16464612  0.32181395  0.09993720
   0.32431756  0.16216280  0.09993678
   0.16466148  0.84284857  0.09993721
   0.84534352  0.16215479  0.09993780
   0.68568387  0.84284152  0.09993796
   0.84535574  0.68318772  0.09993779
   0.16653529  0.33307299  0.32888095
   0.33307199  0.16653565  0.32888167
   0.16653528  0.83346208  0.32888095
   0.33332966  0.66666448  0.32857317
   0.66666294  0.33333133  0.32857317
   0.83346118  0.16653631  0.32887933
   0.66692326  0.83346150  0.32887843
   0.83346120  0.66692421  0.32887933
Direct configuration=     6
   0.33831974  0.66916569  0.10024005
   0.67166747  0.33583698  0.10024003
   0.16468641  0.32182935  0.09991295
   0.32432118  0.16216949  0.09991221
   0.16468027  0.84284094  0.09991296
   0.84532329  0.16215015  0.09991404
   0.68570318  0.84283579  0.09991434
   0.84532200  0.68318108  0.09991399
   0.16662586  0.33325611  0.32889463
   0.33325442  0.16662730  0.32889568
   0.16662588  0.83336873  0.32889463
   0.33332844  0.66666432  0.32853938
   0.66666212  0.33333057  0.32853938
   0.83336704  0.16662769  0.32889233
   0.66673769  0.83336834  0.32889107
   0.83336702  0.66673948  0.32889232
Direct configuration=     7
   0.33832984  0.66916514  0.10020068
   0.67166674  0.33583240  0.10020066
   0.16466234  0.32182015  0.09992744
   0.32431902  0.16216549  0.09992689
   0.16466905  0.84284550  0.09992744
   0.84533538  0.16215292  0.09992823
   0.68569165  0.84283921  0.09992845
   0.84534215  0.68318505  0.09992821
   0.16657176  0.33314672  0.32888646
   0.33314545  0.16657255  0.32888731
   0.16657176  0.83342449  0.32888646
   0.33332917  0.66666442  0.32855957
   0.66666261  0.33333103  0.32855956
   0.83342328  0.16657311  0.32888456
   0.66684854  0.83342399  0.32888352
   0.83342328  0.66684983  0.32888456
Direct configuration=     8
   0.33832999  0.66916514  0.10020009
   0.67166673  0.33583233  0.10020007
   0.16466198  0.32182001  0.09992765
   0.32431898  0.16216543  0.09992711
   0.16466888  0.84284557  0.09992766
   0.84533556  0.16215296  0.09992844
   0.68569147  0.84283927  0.09992866
   0.84534245  0.68318510  0.09992842
   0.16657095  0.33314509  0.32888633
   0.33314382  0.16657173  0.32888719
   0.16657095  0.83342532  0.32888634
   0.33332918  0.66666442  0.32855987
   0.66666262  0.33333103  0.32855987
   0.83342412  0.16657229  0.32888445
   0.66685019  0.83342482  0.32888341
   0.83342412  0.66685148  0.32888445
Direct configuration=     9
   0.33832992  0.66916514  0.10020037
   0.67166674  0.33583237  0.10020035
   0.16466215  0.32182008  0.09992755
   0.32431900  0.16216546  0.09992700
   0.16466896  0.84284553  0.09992756
   0.84533547  0.16215294  0.09992834
   0.68569156  0.84283924  0.09992856
   0.84534231  0.68318508  0.09992832
   0.16657134  0.33314587  0.32888639
   0.33314459  0.16657212  0.32888725
   0.16657133  0.83342493  0.32888639
   0.33332918  0.66666442  0.32855972
   0.66666261  0.33333103  0.32855972
   0.83342371  0.16657268  0.32888450
   0.66684940  0.83342442  0.32888346
   0.83342372  0.66685069  0.32888450
Direct configuration=    10
   0.33834049  0.66916792  0.10022221
   0.67166015  0.33583357  0.10022219
   0.16464538  0.32181823  0.09991869
   0.32433133  0.16215976  0.09991794
   0.16465173  0.84284214  0.09991868
   0.84535734  0.16216253  0.09991982
   0.68567473  0.84284203  0.09992023
   0.84536415  0.68318417  0.09991981
   0.16657026  0.33314566  0.32888345
   0.33314379  0.16657161  0.32888445
   0.16657027  0.83342432  0.32888345
   0.33332803  0.66666373  0.32857322
   0.66666135  0.33333054  0.32857322
   0.83342252  0.16657215  0.32888127
   0.66684796  0.83342385  0.32888008
   0.83342251  0.66684977  0.32888127
Direct configuration=    11
   0.33833981  0.66916774  0.10022081
   0.67166057  0.33583350  0.10022079
   0.16464645  0.32181835  0.09991926
   0.32433054  0.16216012  0.09991852
   0.16465283  0.84284236  0.09991925
   0.84535594  0.16216192  0.09992037
   0.68567581  0.84284186  0.09992077
   0.84536275  0.68318423  0.09992036
   0.16657033  0.33314567  0.32888364
   0.33314384  0.16657164  0.32888463
   0.16657033  0.83342436  0.32888364
   0.33332811  0.66666378  0.32857236
   0.66666143  0.33333057  0.32857235
   0.83342260  0.16657219  0.32888148
   0.66684805  0.83342388  0.32888030
   0.83342259  0.66684983  0.32888147
Direct configuration=    12
   0.33833644  0.66916779  0.10023159
   0.67166503  0.33583377  0.10023158
   0.16465720  0.32181916  0.09991467
   0.32432535  0.16216072  0.09991380
   0.16466023  0.84284340  0.09991466
   0.84534968  0.16216077  0.09991600
   0.68568358  0.84284259  0.09991651
   0.84535316  0.68318481  0.09991600
   0.16656770  0.33314154  0.32888208
   0.33313934  0.16656941  0.32888315
   0.16656771  0.83342586  0.32888208
   0.33332735  0.66666342  0.32857992
   0.66666068  0.33333019  0.32857992
   0.83342374  0.16656996  0.32887977
   0.66685106  0.83342538  0.32887852
   0.83342373  0.66685323  0.32887976
Direct configuration=    13
   0.33833465  0.66916781  0.10023732
   0.67166740  0.33583392  0.10023731
   0.16466291  0.32181960  0.09991223
   0.32432259  0.16216104  0.09991129
   0.16466417  0.84284395  0.09991223
   0.84534635  0.16216016  0.09991368
   0.68568771  0.84284298  0.09991425
   0.84534807  0.68318511  0.09991368
   0.16656631  0.33313935  0.32888125
   0.33313695  0.16656822  0.32888236
   0.16656632  0.83342666  0.32888125
   0.33332695  0.66666322  0.32858394
   0.66666028  0.33332999  0.32858394
   0.83342434  0.16656877  0.32887886
   0.66685266  0.83342618  0.32887757
   0.83342433  0.66685504  0.32887885
