    8    8    1    1
  0.4142730E+02  0.5051000E-09  0.5051000E-09  0.1500000E-08  0.5000000E-15
  1.000000000000000E-004
  CAR 
 BS_HSE06                                
     24     33     48
 
  0.0000000E+00  0.0000000E+00  0.0000000E+00  0.3460208E-02
      1        -20.062769   1.000000
      2        -15.361374   1.000000
      3        -15.288651   1.000000
      4        -15.288632   1.000000
      5        -12.960149   1.000000
      6        -12.960126   1.000000
      7        -10.656464   1.000000
      8         -9.825991   1.000000
      9         -4.270785   1.000000
     10         -4.270781   1.000000
     11         -2.291476   0.894945
     12         -1.728437   0.000000
     13         -1.728419   0.000000
     14         -1.377268   0.000000
     15         -1.377257   0.000000
     16         -1.057531   0.000000
     17         -1.057510   0.000000
     18          0.941814   0.000000
     19          1.797221   0.000000
     20          2.438785   0.000000
     21          2.970580   0.000000
     22          4.552959   0.000000
     23          5.071492   0.000000
     24          6.425480   0.000000
     25          7.007077   0.000000
     26          7.007080   0.000000
     27          7.333042   0.000000
     28          8.158876   0.000000
     29          8.158886   0.000000
     30          8.538144   0.000000
     31          9.285808   0.000000
     32          9.320253   0.000000
     33          9.411425   0.000000
     34          9.499589   0.000000
     35          9.639395   0.000000
     36          9.676277   0.000000
     37          9.695230   0.000000
     38          9.697962   0.000000
     39          9.699815   0.000000
     40          9.701827   0.000000
     41          9.717403   0.000000
     42          9.734296   0.000000
     43          9.740582   0.000000
     44          9.750550   0.000000
     45          9.935401   0.000000
     46         10.546337   0.000000
     47         10.587390   0.000000
     48         10.708982   0.000000
 
  0.5882353E-01  0.4798754E-17  0.0000000E+00  0.2076125E-01
      1        -20.045051   1.000000
      2        -15.752539   1.000000
      3        -15.309219   1.000000
      4        -14.912757   1.000000
      5        -12.988969   1.000000
      6        -12.909904   1.000000
      7        -10.569214   1.000000
      8         -9.798583   1.000000
      9         -4.491013   1.000000
     10         -4.454950   1.000000
     11         -2.781002   1.000000
     12         -1.960373   0.000310
     13         -1.564035   0.000000
     14         -1.180328   0.000000
     15         -1.143817   0.000000
     16         -0.774226   0.000000
     17         -0.763926   0.000000
     18          0.968147   0.000000
     19          1.836807   0.000000
     20          2.465618   0.000000
     21          3.060154   0.000000
     22          4.580987   0.000000
     23          5.097121   0.000000
     24          6.281803   0.000000
     25          6.825993   0.000000
     26          6.950394   0.000000
     27          7.241296   0.000000
     28          7.878909   0.000000
     29          8.085704   0.000000
     30          8.558700   0.000000
     31          8.835350   0.000000
     32          9.096911   0.000000
     33          9.211296   0.000000
     34          9.280417   0.000000
     35          9.287738   0.000000
     36          9.288066   0.000000
     37          9.370971   0.000000
     38          9.503454   0.000000
     39          9.676275   0.000000
     40          9.793950   0.000000
     41          9.968864   0.000000
     42         10.148249   0.000000
     43         10.156552   0.000000
     44         10.263786   0.000000
     45         10.301773   0.000000
     46         10.419882   0.000000
     47         10.672694   0.000000
     48         10.951483   0.000000
 
  0.1176471E+00  0.1218086E-17  0.0000000E+00  0.2076125E-01
      1        -19.992110   1.000000
      2        -16.178777   1.000000
      3        -15.364759   1.000000
      4        -14.547869   1.000000
      5        -13.035279   1.000000
      6        -12.766174   1.000000
      7        -10.338095   1.000000
      8         -9.716522   1.000000
      9         -5.008577   1.000000
     10         -4.893634   1.000000
     11         -3.511675   1.000000
     12         -2.322308   0.955041
     13         -1.597316   0.000000
     14         -0.700637   0.000000
     15         -0.587345   0.000000
     16         -0.258588   0.000000
     17         -0.082019   0.000000
     18          1.047135   0.000000
     19          1.947075   0.000000
     20          2.546103   0.000000
     21          3.319760   0.000000
     22          4.665113   0.000000
     23          5.173452   0.000000
     24          5.829588   0.000000
     25          6.384270   0.000000
     26          6.794233   0.000000
     27          7.024457   0.000000
     28          7.410935   0.000000
     29          7.900653   0.000000
     30          7.998535   0.000000
     31          8.422031   0.000000
     32          8.637316   0.000000
     33          8.902958   0.000000
     34          8.912055   0.000000
     35          8.913897   0.000000
     36          9.086201   0.000000
     37          9.257217   0.000000
     38          9.454103   0.000000
     39          9.772219   0.000000
     40         10.040762   0.000000
     41         10.096564   0.000000
     42         10.292581   0.000000
     43         10.424471   0.000000
     44         10.440270   0.000000
     45         10.687532   0.000000
     46         10.822000   0.000000
     47         10.864570   0.000000
     48         11.381379   0.000000
 
  0.1764706E+00  0.2813212E-16  0.0000000E+00  0.2076125E-01
      1        -19.904720   1.000000
      2        -16.598027   1.000000
      3        -15.441082   1.000000
      4        -14.287681   1.000000
      5        -13.000171   1.000000
      6        -12.545918   1.000000
      7        -10.030667   1.000000
      8         -9.580422   1.000000
      9         -5.636726   1.000000
     10         -5.419112   1.000000
     11         -4.247549   1.000000
     12         -2.658811   1.000000
     13         -1.723161   0.000000
     14         -0.096551   0.000000
     15          0.103159   0.000000
     16          0.333095   0.000000
     17          0.675586   0.000000
     18          1.178767   0.000000
     19          2.114449   0.000000
     20          2.680187   0.000000
     21          3.717855   0.000000
     22          4.805179   0.000000
     23          5.128064   0.000000
     24          5.301651   0.000000
     25          5.863606   0.000000
     26          6.565776   0.000000
     27          6.605769   0.000000
     28          7.121053   0.000000
     29          7.220963   0.000000
     30          7.665085   0.000000
     31          7.706822   0.000000
     32          8.424683   0.000000
     33          8.564719   0.000000
     34          8.589233   0.000000
     35          8.778957   0.000000
     36          8.879694   0.000000
     37          9.007190   0.000000
     38          9.578778   0.000000
     39          9.698949   0.000000
     40          9.889432   0.000000
     41          9.937907   0.000000
     42         10.051228   0.000000
     43         10.692656   0.000000
     44         10.711941   0.000000
     45         10.776572   0.000000
     46         10.804173   0.000000
     47         11.200282   0.000000
     48         11.371340   0.000000
 
  0.2352941E+00  0.2436172E-17  0.0000000E+00  0.2076125E-01
      1        -19.784460   1.000000
      2        -17.002834   1.000000
      3        -15.523307   1.000000
      4        -14.187265   1.000000
      5        -12.798526   1.000000
      6        -12.269679   1.000000
      7         -9.724015   1.000000
      8         -9.391636   1.000000
      9         -6.282431   1.000000
     10         -5.922930   1.000000
     11         -4.954825   1.000000
     12         -2.947087   1.000000
     13         -1.869197   0.000001
     14          0.543663   0.000000
     15          0.831766   0.000000
     16          0.976537   0.000000
     17          1.363129   0.000000
     18          1.430873   0.000000
     19          2.334563   0.000000
     20          2.867745   0.000000
     21          4.197725   0.000000
     22          4.352963   0.000000
     23          4.998946   0.000000
     24          5.256360   0.000000
     25          5.508052   0.000000
     26          6.136168   0.000000
     27          6.285562   0.000000
     28          6.493933   0.000000
     29          6.845256   0.000000
     30          7.102868   0.000000
     31          7.426114   0.000000
     32          7.809672   0.000000
     33          8.290783   0.000000
     34          8.319671   0.000000
     35          8.681818   0.000000
     36          8.779935   0.000000
     37          8.937744   0.000000
     38          8.979884   0.000000
     39          9.354824   0.000000
     40          9.781402   0.000000
     41         10.137513   0.000000
     42         10.163942   0.000000
     43         10.528441   0.000000
     44         10.807500   0.000000
     45         10.847398   0.000000
     46         11.207414   0.000000
     47         11.225108   0.000000
     48         11.509536   0.000000
 
  0.2941176E+00  0.3628909E-16  0.0000000E+00  0.2076125E-01
      1        -19.634438   1.000000
      2        -17.385752   1.000000
      3        -15.599779   1.000000
      4        -14.204346   1.000000
      5        -12.459829   1.000000
      6        -11.959862   1.000000
      7         -9.502824   1.000000
      8         -9.153106   1.000000
      9         -6.898191   1.000000
     10         -6.323665   1.000000
     11         -5.617850   1.000000
     12         -3.180881   1.000000
     13         -2.006491   0.002764
     14          1.171284   0.000000
     15          1.548797   0.000000
     16          1.601466   0.000000
     17          1.663247   0.000000
     18          2.152031   0.000000
     19          2.617971   0.000000
     20          3.108466   0.000000
     21          3.608274   0.000000
     22          4.679912   0.000000
     23          4.683198   0.000000
     24          5.232668   0.000000
     25          5.673127   0.000000
     26          5.728093   0.000000
     27          5.821474   0.000000
     28          5.964568   0.000000
     29          6.283274   0.000000
     30          6.861537   0.000000
     31          7.100157   0.000000
     32          7.214243   0.000000
     33          8.058670   0.000000
     34          8.103951   0.000000
     35          8.306992   0.000000
     36          8.499708   0.000000
     37          8.589855   0.000000
     38          8.802447   0.000000
     39          9.142459   0.000000
     40          9.992491   0.000000
     41         10.264477   0.000000
     42         10.302393   0.000000
     43         10.453822   0.000000
     44         10.635915   0.000000
     45         10.857215   0.000000
     46         11.368148   0.000000
     47         11.667444   0.000000
     48         11.870044   0.000000
 
  0.3529412E+00  0.2447094E-16  0.0000000E+00  0.2076125E-01
      1        -19.461353   1.000000
      2        -17.736591   1.000000
      3        -15.662616   1.000000
      4        -14.260399   1.000000
      5        -12.067873   1.000000
      6        -11.644874   1.000000
      7         -9.443295   1.000000
      8         -8.871937   1.000000
      9         -7.446407   1.000000
     10         -6.558604   1.000000
     11         -6.222328   1.000000
     12         -3.357598   1.000000
     13         -2.119256   0.119001
     14          1.735157   0.000000
     15          1.905196   0.000000
     16          2.216762   0.000000
     17          2.387470   0.000000
     18          2.757452   0.000000
     19          2.974887   0.000000
     20          3.032083   0.000000
     21          3.401011   0.000000
     22          4.115809   0.000000
     23          5.073922   0.000000
     24          5.184805   0.000000
     25          5.239610   0.000000
     26          5.498711   0.000000
     27          5.614396   0.000000
     28          5.681799   0.000000
     29          6.000091   0.000000
     30          6.332350   0.000000
     31          6.738462   0.000000
     32          7.047360   0.000000
     33          7.689075   0.000000
     34          7.882988   0.000000
     35          7.942095   0.000000
     36          8.196977   0.000000
     37          8.414533   0.000000
     38          8.443781   0.000000
     39          9.373311   0.000000
     40         10.095567   0.000000
     41         10.244622   0.000000
     42         10.473362   0.000000
     43         10.481849   0.000000
     44         10.709482   0.000000
     45         10.941863   0.000000
     46         11.496330   0.000000
     47         11.841374   0.000000
     48         12.109752   0.000000
 
  0.4117647E+00  0.7479884E-16  0.0000000E+00  0.2076125E-01
      1        -19.282162   1.000000
      2        -18.035776   1.000000
      3        -15.706838   1.000000
      4        -14.311935   1.000000
      5        -11.697628   1.000000
      6        -11.368345   1.000000
      7         -9.544497   1.000000
      8         -8.568871   1.000000
      9         -7.879717   1.000000
     10         -6.743085   1.000000
     11         -6.632617   1.000000
     12         -3.475933   1.000000
     13         -2.198451   0.476049
     14          2.124361   0.000000
     15          2.285110   0.000000
     16          2.569483   0.000000
     17          2.787225   0.000000
     18          3.143532   0.000000
     19          3.193148   0.000000
     20          3.570775   0.000000
     21          3.599935   0.000000
     22          3.765038   0.000000
     23          4.616306   0.000000
     24          4.840419   0.000000
     25          5.131622   0.000000
     26          5.236962   0.000000
     27          5.265316   0.000000
     28          5.535002   0.000000
     29          5.784701   0.000000
     30          6.300083   0.000000
     31          6.679394   0.000000
     32          6.933994   0.000000
     33          7.129845   0.000000
     34          7.699484   0.000000
     35          7.776310   0.000000
     36          7.834163   0.000000
     37          8.301918   0.000000
     38          8.345067   0.000000
     39          9.620443   0.000000
     40         10.081396   0.000000
     41         10.384370   0.000000
     42         10.526597   0.000000
     43         10.699342   0.000000
     44         10.863661   0.000000
     45         10.962571   0.000000
     46         11.748689   0.000000
     47         11.871897   0.000000
     48         12.050935   0.000000
 
  0.4705882E+00  0.4872344E-17  0.0000000E+00  0.2076125E-01
      1        -19.145491   1.000000
      2        -18.232886   1.000000
      3        -15.729605   1.000000
      4        -14.340933   1.000000
      5        -11.448734   1.000000
      6        -11.197040   1.000000
      7         -9.680364   1.000000
      8         -8.319123   1.000000
      9         -8.129744   1.000000
     10         -7.102289   1.000000
     11         -6.630803   1.000000
     12         -3.535245   1.000000
     13         -2.239148   0.696879
     14          2.146695   0.000000
     15          2.536072   0.000000
     16          2.740884   0.000000
     17          3.111486   0.000000
     18          3.158860   0.000000
     19          3.619438   0.000000
     20          3.923350   0.000000
     21          4.045471   0.000000
     22          4.112031   0.000000
     23          4.149776   0.000000
     24          4.536712   0.000000
     25          4.663710   0.000000
     26          4.730998   0.000000
     27          5.007212   0.000000
     28          5.137074   0.000000
     29          6.175048   0.000000
     30          6.493350   0.000000
     31          6.627247   0.000000
     32          6.798734   0.000000
     33          6.877018   0.000000
     34          7.250721   0.000000
     35          7.733153   0.000000
     36          7.780187   0.000000
     37          8.251810   0.000000
     38          8.295359   0.000000
     39          9.818394   0.000000
     40         10.225454   0.000000
     41         10.313162   0.000000
     42         10.559520   0.000000
     43         10.576944   0.000000
     44         10.745738   0.000000
     45         10.956417   0.000000
     46         11.420331   0.000000
     47         11.789661   0.000000
     48         12.290560   0.000000
 
  0.5882353E-01  0.5882353E-01  0.0000000E+00  0.2076125E-01
      1        -20.009715   1.000000
      2        -16.063131   1.000000
      3        -15.353612   1.000000
      4        -14.631633   1.000000
      5        -13.035002   1.000000
      6        -12.806394   1.000000
      7        -10.410591   1.000000
      8         -9.743844   1.000000
      9         -4.862801   1.000000
     10         -4.751383   1.000000
     11         -3.299906   1.000000
     12         -2.308937   0.934022
     13         -1.422021   0.000000
     14         -0.868907   0.000000
     15         -0.734025   0.000000
     16         -0.624090   0.000000
     17         -0.142212   0.000000
     18          1.020806   0.000000
     19          1.911305   0.000000
     20          2.519277   0.000000
     21          3.234549   0.000000
     22          4.637062   0.000000
     23          5.148160   0.000000
     24          5.999122   0.000000
     25          6.592666   0.000000
     26          6.643841   0.000000
     27          7.221994   0.000000
     28          7.472193   0.000000
     29          8.015300   0.000000
     30          8.407352   0.000000
     31          8.433267   0.000000
     32          8.636615   0.000000
     33          8.770259   0.000000
     34          8.829590   0.000000
     35          9.005262   0.000000
     36          9.418315   0.000000
     37          9.637686   0.000000
     38          9.643387   0.000000
     39          9.738266   0.000000
     40          9.760412   0.000000
     41          9.794930   0.000000
     42         10.221887   0.000000
     43         10.336288   0.000000
     44         10.647622   0.000000
     45         10.696722   0.000000
     46         10.771913   0.000000
     47         10.845118   0.000000
     48         11.075306   0.000000
 
  0.1176471E+00  0.5882353E-01  0.0000000E+00  0.4152249E-01
      1        -19.939520   1.000000
      2        -16.445731   1.000000
      3        -15.434322   1.000000
      4        -14.328885   1.000000
      5        -13.068467   1.000000
      6        -12.609772   1.000000
      7        -10.143723   1.000000
      8         -9.634736   1.000000
      9         -5.428551   1.000000
     10         -5.207514   1.000000
     11         -3.960685   1.000000
     12         -2.704950   1.000000
     13         -1.405124   0.000000
     14         -0.382474   0.000000
     15         -0.215183   0.000000
     16         -0.087302   0.000000
     17          0.603650   0.000000
     18          1.126100   0.000000
     19          2.048159   0.000000
     20          2.626563   0.000000
     21          3.561969   0.000000
     22          4.749146   0.000000
     23          5.248254   0.000000
     24          5.457896   0.000000
     25          6.093272   0.000000
     26          6.294355   0.000000
     27          6.888183   0.000000
     28          7.276003   0.000000
     29          7.622281   0.000000
     30          7.868121   0.000000
     31          8.076885   0.000000
     32          8.126659   0.000000
     33          8.512068   0.000000
     34          8.606961   0.000000
     35          8.725927   0.000000
     36          9.428541   0.000000
     37          9.481776   0.000000
     38          9.533945   0.000000
     39          9.871768   0.000000
     40          9.904748   0.000000
     41         10.082665   0.000000
     42         10.137801   0.000000
     43         10.233248   0.000000
     44         10.320568   0.000000
     45         10.540861   0.000000
     46         10.668531   0.000000
     47         11.092475   0.000000
     48         11.568933   0.000000
 
  0.1764706E+00  0.5882353E-01  0.0000000E+00  0.4152249E-01
      1        -19.835579   1.000000
      2        -16.837496   1.000000
      3        -15.530432   1.000000
      4        -14.130216   1.000000
      5        -12.984305   1.000000
      6        -12.345602   1.000000
      7         -9.840875   1.000000
      8         -9.472172   1.000000
      9         -6.045615   1.000000
     10         -5.707484   1.000000
     11         -4.645342   1.000000
     12         -3.043042   1.000000
     13         -1.507981   0.000000
     14          0.178455   0.000000
     15          0.354991   0.000000
     16          0.651953   0.000000
     17          1.284009   0.000000
     18          1.370317   0.000000
     19          2.238768   0.000000
     20          2.787390   0.000000
     21          3.997499   0.000000
     22          4.730878   0.000000
     23          4.916121   0.000000
     24          5.382290   0.000000
     25          5.576402   0.000000
     26          5.862800   0.000000
     27          6.500387   0.000000
     28          6.869607   0.000000
     29          7.148971   0.000000
     30          7.332072   0.000000
     31          7.774168   0.000000
     32          7.809390   0.000000
     33          8.061595   0.000000
     34          8.256532   0.000000
     35          8.868958   0.000000
     36          9.127893   0.000000
     37          9.353287   0.000000
     38          9.364807   0.000000
     39          9.610955   0.000000
     40          9.741775   0.000000
     41         10.065704   0.000000
     42         10.099472   0.000000
     43         10.222395   0.000000
     44         10.393292   0.000000
     45         10.634279   0.000000
     46         10.840590   0.000000
     47         11.612574   0.000000
     48         11.739347   0.000000
 
  0.2352941E+00  0.5882353E-01  0.0000000E+00  0.4152249E-01
      1        -19.700058   1.000000
      2        -17.219688   1.000000
      3        -15.625395   1.000000
      4        -14.079360   1.000000
      5        -12.729108   1.000000
      6        -12.038926   1.000000
      7         -9.585408   1.000000
      8         -9.258109   1.000000
      9         -6.642556   1.000000
     10         -6.161499   1.000000
     11         -5.311251   1.000000
     12         -3.318199   1.000000
     13         -1.638420   0.000000
     14          0.753568   0.000000
     15          0.999465   0.000000
     16          1.410601   0.000000
     17          1.495953   0.000000
     18          2.119127   0.000000
     19          2.489380   0.000000
     20          3.001564   0.000000
     21          3.968192   0.000000
     22          4.473862   0.000000
     23          4.975977   0.000000
     24          5.130714   0.000000
     25          5.403881   0.000000
     26          5.617794   0.000000
     27          6.168418   0.000000
     28          6.217978   0.000000
     29          6.658263   0.000000
     30          6.946599   0.000000
     31          7.380781   0.000000
     32          7.547450   0.000000
     33          7.648960   0.000000
     34          8.038129   0.000000
     35          8.657737   0.000000
     36          8.876232   0.000000
     37          9.057828   0.000000
     38          9.073626   0.000000
     39          9.274746   0.000000
     40          9.892377   0.000000
     41          9.965214   0.000000
     42         10.108877   0.000000
     43         10.307818   0.000000
     44         10.655358   0.000000
     45         10.896595   0.000000
     46         10.939850   0.000000
     47         11.570407   0.000000
     48         12.087698   0.000000
 
  0.2941176E+00  0.5882353E-01  0.0000000E+00  0.4152249E-01
      1        -19.537372   1.000000
      2        -17.580229   1.000000
      3        -15.707917   1.000000
      4        -14.111789   1.000000
      5        -12.366101   1.000000
      6        -11.716516   1.000000
      7         -9.468184   1.000000
      8         -8.996975   1.000000
      9         -7.179553   1.000000
     10         -6.485490   1.000000
     11         -5.935396   1.000000
     12         -3.531427   1.000000
     13         -1.759116   0.000000
     14          1.304397   0.000000
     15          1.688674   0.000000
     16          1.757308   0.000000
     17          2.146284   0.000000
     18          2.701374   0.000000
     19          2.933583   0.000000
     20          3.268475   0.000000
     21          3.272615   0.000000
     22          4.407819   0.000000
     23          4.902325   0.000000
     24          4.968573   0.000000
     25          5.354821   0.000000
     26          5.531131   0.000000
     27          5.835094   0.000000
     28          5.923714   0.000000
     29          6.117181   0.000000
     30          6.676369   0.000000
     31          6.680800   0.000000
     32          7.339707   0.000000
     33          7.518378   0.000000
     34          7.861852   0.000000
     35          8.013749   0.000000
     36          8.524367   0.000000
     37          8.676273   0.000000
     38          9.139743   0.000000
     39          9.278872   0.000000
     40          9.767723   0.000000
     41         10.066777   0.000000
     42         10.196417   0.000000
     43         10.559494   0.000000
     44         10.765440   0.000000
     45         10.882852   0.000000
     46         11.377007   0.000000
     47         11.475265   0.000000
     48         12.473598   0.000000
 
  0.3529412E+00  0.5882353E-01  0.0000000E+00  0.4152249E-01
      1        -19.357743   1.000000
      2        -17.904174   1.000000
      3        -15.770898   1.000000
      4        -14.161658   1.000000
      5        -11.977883   1.000000
      6        -11.413808   1.000000
      7         -9.537077   1.000000
      8         -8.700378   1.000000
      9         -7.626607   1.000000
     10         -6.631516   1.000000
     11         -6.496426   1.000000
     12         -3.683433   1.000000
     13         -1.853278   0.000000
     14          1.789999   0.000000
     15          2.076413   0.000000
     16          2.404235   0.000000
     17          2.651203   0.000000
     18          2.875711   0.000000
     19          3.070088   0.000000
     20          3.582781   0.000000
     21          3.600934   0.000000
     22          3.870448   0.000000
     23          4.568271   0.000000
     24          4.912082   0.000000
     25          5.114661   0.000000
     26          5.400176   0.000000
     27          5.617341   0.000000
     28          5.739360   0.000000
     29          6.012478   0.000000
     30          6.187841   0.000000
     31          6.447395   0.000000
     32          7.198456   0.000000
     33          7.413736   0.000000
     34          7.424754   0.000000
     35          7.732306   0.000000
     36          7.997428   0.000000
     37          8.537245   0.000000
     38          9.038362   0.000000
     39          9.493124   0.000000
     40          9.687040   0.000000
     41         10.078907   0.000000
     42         10.454266   0.000000
     43         10.652105   0.000000
     44         10.812684   0.000000
     45         11.317327   0.000000
     46         11.370278   0.000000
     47         11.723000   0.000000
     48         12.016032   0.000000
 
  0.4117647E+00  0.5882353E-01  0.0000000E+00  0.4152249E-01
      1        -19.189467   1.000000
      2        -18.160220   1.000000
      3        -15.810147   1.000000
      4        -14.199025   1.000000
      5        -11.648062   1.000000
      6        -11.184006   1.000000
      7         -9.715235   1.000000
      8         -8.406580   1.000000
      9         -7.939708   1.000000
     10         -6.950718   1.000000
     11         -6.650695   1.000000
     12         -3.774546   1.000000
     13         -1.912470   0.000020
     14          2.113959   0.000000
     15          2.374205   0.000000
     16          2.447760   0.000000
     17          3.112349   0.000000
     18          3.271927   0.000000
     19          3.445653   0.000000
     20          3.470197   0.000000
     21          3.964805   0.000000
     22          4.176333   0.000000
     23          4.247416   0.000000
     24          4.372268   0.000000
     25          4.855077   0.000000
     26          4.877526   0.000000
     27          5.473599   0.000000
     28          5.497557   0.000000
     29          5.994645   0.000000
     30          6.240043   0.000000
     31          6.580301   0.000000
     32          6.892716   0.000000
     33          7.120811   0.000000
     34          7.292260   0.000000
     35          7.559015   0.000000
     36          7.660580   0.000000
     37          8.462446   0.000000
     38          8.974354   0.000000
     39          9.530837   0.000000
     40          9.896428   0.000000
     41         10.056728   0.000000
     42         10.580125   0.000000
     43         10.776173   0.000000
     44         11.000302   0.000000
     45         11.107808   0.000000
     46         11.377477   0.000000
     47         11.597120   0.000000
     48         11.962675   0.000000
 
  0.4705882E+00  0.5882353E-01  0.0000000E+00  0.2076125E-01
      1        -19.109209   1.000000
      2        -18.269919   1.000000
      3        -15.823455   1.000000
      4        -14.212467   1.000000
      5        -11.506512   1.000000
      6        -11.094990   1.000000
      7         -9.815870   1.000000
      8         -8.253875   1.000000