PROCAR lm decomposed
# of k-points:   33         # of bands:   48         # of ions:    8

 k-point     1 :    0.00000000 0.00000000 0.00000000     weight = 0.00346021

band     1 # energy  -20.06276940 # occ.  2.00000000
 
ion      s     py     pz     px    dxy    dyz    dz2    dxz  x2-y2    tot
    1  0.080  0.001  0.000  0.004  0.000  0.000  0.000  0.000  0.000  0.085
    2  0.080  0.001  0.000  0.004  0.000  0.000  0.000  0.000  0.000  0.085
    3  0.080  0.001  0.000  0.004  0.000  0.000  0.000  0.000  0.000  0.085
    4  0.080  0.001  0.000  0.004  0.000  0.000  0.000  0.000  0.000  0.085
    5  0.080  0.005  0.000  0.000  0.000  0.000  0.000  0.000  0.000  0.085
    6  0.080  0.005  0.000  0.000  0.000  0.000  0.000  0.000  0.000  0.085
    7  0.126  0.000  0.000  0.000  0.000  0.000  0.000  0.000  0.000  0.126
    8  0.126  0.000  0.000  0.000  0.000  0.000  0.000  0.000  0.000  0.126
tot    0.730  0.015  0.000  0.015  0.000  0.000  0.000  0.000  0.000  0.761
 
band     2 # energy  -15.36137434 # occ.  2.00000000
 
ion      s     py     pz     px    dxy    dyz    dz2    dxz  x2-y2    tot
    1  0.000  0.055  0.000  0.018  0.000  0.000  0.000  0.000  0.000  0.073
    2  0.000  0.055  0.000  0.018  0.000  0.000  0.000  0.000  0.000  0.073
    3  0.000  0.055  0.000  0.018  0.000  0.000  0.000  0.000  0.000  0.073
    4  0.000  0.055  0.000  0.018  0.000  0.000  0.000  0.000  0.000  0.073
    5  0.000  0.000  0.000  0.073  0.000  0.000  0.000  0.000  0.000  0.073
    6  0.000  0.000  0.000  0.073  0.000  0.000  0.000  0.000  0.000  0.073
    7  0.196  0.000  0.000  0.000  0.000  0.000  0.000  0.000  0.000  0.196
    8  0.196  0.000  0.000  0.000  0.000  0.000  0.000  0.000  0.000  0.196
tot    0.393  0.218  0.000  0.218  0.000  0.000  0.000  0.000  0.000  0.829
 
band     3 # energy  -15.28865073 # occ.  2.00000000
 
ion      s     py     pz     px    dxy    dyz    dz2    dxz  x2-y2    tot
    1  0.030  0.008  0.000  0.029  0.000  0.000  0.000  0.000  0.000  0.067
    2  0.030  0.008  0.000  0.029  0.000  0.000  0.000  0.000  0.000  0.067
    3  0.030  0.008  0.000  0.029  0.000  0.000  0.000  0.000  0.000  0.067
    4  0.030  0.008  0.000  0.029  0.000  0.000  0.000  0.000  0.000  0.067
    5  0.121  0.041  0.000  0.000  0.000  0.000  0.000  0.000  0.000  0.162
    6  0.121  0.041  0.000  0.000  0.000  0.000  0.000  0.000  0.000  0.162
    7  0.000  0.000  0.000  0.118  0.000  0.000  0.000  0.000  0.000  0.118
    8  0.000  0.000  0.000  0.118  0.000  0.000  0.000  0.000  0.000  0.118
tot    0.362  0.116  0.000  0.351  0.000  0.000  0.000  0.000  0.000  0.829
 
band     4 # energy  -15.28863164 # occ.  2.00000000
 
ion      s     py     pz     px    dxy    dyz    dz2    dxz  x2-y2    tot
    1  0.091  0.029  0.000  0.011  0.000  0.000  0.000  0.000  0.000  0.131
    2  0.091  0.029  0.000  0.011  0.000  0.000  0.000  0.000  0.000  0.130
    3  0.091  0.029  0.000  0.011  0.000  0.000  0.000  0.000  0.000  0.131
    4  0.091  0.029  0.000  0.011  0.000  0.000  0.000  0.000  0.000  0.131
    5  0.000  0.000  0.000  0.036  0.000  0.000  0.000  0.000  0.000  0.036
    6  0.000  0.000  0.000  0.036  0.000  0.000  0.000  0.000  0.000  0.036
    7  0.000  0.118  0.000  0.000  0.000  0.000  0.000  0.000  0.000  0.118
    8  0.000  0.118  0.000  0.000  0.000  0.000  0.000  0.000  0.000  0.118
tot    0.362  0.351  0.000  0.116  0.000  0.000  0.000  0.000  0.000  0.829
 
band     5 # energy  -12.96014922 # occ.  2.00000000
 
ion      s     py     pz     px    dxy    dyz    dz2    dxz  x2-y2    tot
    1  0.033  0.021  0.000  0.025  0.000  0.000  0.000  0.000  0.000  0.080
    2  0.033  0.021  0.000  0.025  0.000  0.000  0.000  0.000  0.000  0.080
    3  0.033  0.021  0.000  0.025  0.000  0.000  0.000  0.000  0.000  0.080
    4  0.033  0.021  0.000  0.025  0.000  0.000  0.000  0.000  0.000  0.080
    5  0.133  0.017  0.000  0.000  0.000  0.000  0.000  0.000  0.000  0.149
    6  0.133  0.017  0.000  0.000  0.000  0.000  0.000  0.000  0.000  0.149
    7  0.000  0.082  0.000  0.000  0.000  0.000  0.000  0.000  0.000  0.082
    8  0.000  0.082  0.000  0.000  0.000  0.000  0.000  0.000  0.000  0.082
tot    0.399  0.282  0.000  0.101  0.000  0.000  0.000  0.000  0.000  0.782
 
band     6 # energy  -12.96012640 # occ.  2.00000000
 
ion      s     py     pz     px    dxy    dyz    dz2    dxz  x2-y2    tot
    1  0.100  0.025  0.000  0.001  0.000  0.000  0.000  0.000  0.000  0.126
    2  0.100  0.025  0.000  0.001  0.000  0.000  0.000  0.000  0.000  0.126
    3  0.100  0.025  0.000  0.001  0.000  0.000  0.000  0.000  0.000  0.126
    4  0.100  0.025  0.000  0.001  0.000  0.000  0.000  0.000  0.000  0.126
    5  0.000  0.000  0.000  0.057  0.000  0.000  0.000  0.000  0.000  0.057
    6  0.000  0.000  0.000  0.057  0.000  0.000  0.000  0.000  0.000  0.057
    7  0.000  0.000  0.000  0.082  0.000  0.000  0.000  0.000  0.000  0.082
    8  0.000  0.000  0.000  0.082  0.000  0.000  0.000  0.000  0.000  0.082
tot    0.399  0.101  0.000  0.282  0.000  0.000  0.000  0.000  0.000  0.782
 
band     7 # energy  -10.65646406 # occ.  2.00000000
 
ion      s     py     pz     px    dxy    dyz    dz2    dxz  x2-y2    tot
    1  0.011  0.021  0.000  0.064  0.000  0.000  0.000  0.000  0.000  0.096
    2  0.011  0.021  0.000  0.064  0.000  0.000  0.000  0.000  0.000  0.096
    3  0.011  0.021  0.000  0.064  0.000  0.000  0.000  0.000  0.000  0.096
    4  0.011  0.021  0.000  0.064  0.000  0.000  0.000  0.000  0.000  0.096
    5  0.011  0.085  0.000  0.000  0.000  0.000  0.000  0.000  0.000  0.096
    6  0.011  0.085  0.000  0.000  0.000  0.000  0.000  0.000  0.000  0.096
    7  0.030  0.000  0.000  0.000  0.000  0.000  0.000  0.000  0.000  0.030
    8  0.030  0.000  0.000  0.000  0.000  0.000  0.000  0.000  0.000  0.030
tot    0.128  0.255  0.000  0.255  0.000  0.000  0.000  0.000  0.000  0.639
 
band     8 # energy   -9.82599082 # occ.  2.00000000
 
ion      s     py     pz     px    dxy    dyz    dz2    dxz  x2-y2    tot
    1  0.000  0.000  0.050  0.000  0.000  0.000  0.000  0.000  0.000  0.050
    2  0.000  0.000  0.050  0.000  0.000  0.000  0.000  0.000  0.000  0.050
    3  0.000  0.000  0.050  0.000  0.000  0.000  0.000  0.000  0.000  0.050
    4  0.000  0.000  0.050  0.000  0.000  0.000  0.000  0.000  0.000  0.050
    5  0.000  0.000  0.050  0.000  0.000  0.000  0.000  0.000  0.000  0.050
    6  0.000  0.000  0.050  0.000  0.000  0.000  0.000  0.000  0.000  0.050
    7  0.000  0.000  0.073  0.000  0.000  0.000  0.000  0.000  0.000  0.073
    8  0.000  0.000  0.073  0.000  0.000  0.000  0.000  0.000  0.000  0.073
tot    0.000  0.000  0.448  0.000  0.000  0.000  0.000  0.000  0.000  0.448
 
band     9 # energy   -4.27078541 # occ.  2.00000000
 
ion      s     py     pz     px    dxy    dyz    dz2    dxz  x2-y2    tot
    1  0.000  0.000  0.000  0.121  0.000  0.000  0.000  0.000  0.000  0.121
    2  0.000  0.000  0.000  0.121  0.000  0.000  0.000  0.000  0.000  0.121
    3  0.000  0.000  0.000  0.121  0.000  0.000  0.000  0.000  0.000  0.121
    4  0.000  0.000  0.000  0.121  0.000  0.000  0.000  0.000  0.000  0.121
    5  0.000  0.000  0.000  0.146  0.000  0.000  0.000  0.000  0.000  0.147
    6  0.000  0.000  0.000  0.146  0.000  0.000  0.000  0.000  0.000  0.147
    7  0.000  0.001  0.000  0.000  0.000  0.000  0.000  0.000  0.000  0.001
    8  0.000  0.001  0.000  0.000  0.000  0.000  0.000  0.000  0.000  0.001
tot    0.000  0.003  0.000  0.777  0.000  0.000  0.000  0.000  0.000  0.780
 
band    10 # energy   -4.27078146 # occ.  2.00000000
 
ion      s     py     pz     px    dxy    dyz    dz2    dxz  x2-y2    tot
    1  0.000  0.138  0.000  0.000  0.000  0.000  0.000  0.000  0.000  0.138
    2  0.000  0.138  0.000  0.000  0.000  0.000  0.000  0.000  0.000  0.138
    3  0.000  0.138  0.000  0.000  0.000  0.000  0.000  0.000  0.000  0.138
    4  0.000  0.138  0.000  0.000  0.000  0.000  0.000  0.000  0.000  0.138
    5  0.000  0.113  0.000  0.000  0.000  0.000  0.000  0.000  0.000  0.113
    6  0.000  0.113  0.000  0.000  0.000  0.000  0.000  0.000  0.000  0.113
    7  0.000  0.000  0.000  0.001  0.000  0.000  0.000  0.000  0.000  0.001
    8  0.000  0.000  0.000  0.001  0.000  0.000  0.000  0.000  0.000  0.001
tot    0.000  0.777  0.000  0.003  0.000  0.000  0.000  0.000  0.000  0.780
 
band    11 # energy   -2.29147595 # occ.  1.78988994
 
ion      s     py     pz     px    dxy    dyz    dz2    dxz  x2-y2    tot
    1  0.000  0.000  0.000  0.000  0.000  0.000  0.000  0.000  0.000  0.000
    2  0.000  0.000  0.000  0.000  0.000  0.000  0.000  0.000  0.000  0.000
    3  0.000  0.000  0.000  0.000  0.000  0.000  0.000  0.000  0.000  0.000
    4  0.000  0.000  0.000  0.000  0.000  0.000  0.000  0.000  0.000  0.000
    5  0.000  0.000  0.000  0.000  0.000  0.000  0.000  0.000  0.000  0.000
    6  0.000  0.000  0.000  0.000  0.000  0.000  0.000  0.000  0.000  0.000
    7  0.000  0.000  0.226  0.000  0.000  0.000  0.000  0.000  0.000  0.226
    8  0.000  0.000  0.226  0.000  0.000  0.000  0.000  0.000  0.000  0.226
tot    0.000  0.000  0.452  0.000  0.000  0.000  0.000  0.000  0.000  0.452
 
band    12 # energy   -1.72843733 # occ.  0.00000000
 
ion      s     py     pz     px    dxy    dyz    dz2    dxz  x2-y2    tot
    1  0.000  0.000  0.024  0.000  0.000  0.000  0.000  0.000  0.000  0.024
    2  0.000  0.000  0.024  0.000  0.000  0.000  0.000  0.000  0.000  0.024
    3  0.000  0.000  0.049  0.000  0.000  0.000  0.000  0.000  0.000  0.049
    4  0.000  0.000  0.049  0.000  0.000  0.000  0.000  0.000  0.000  0.049
    5  0.000  0.000  0.139  0.000  0.000  0.000  0.000  0.000  0.000  0.139
    6  0.000  0.000  0.139  0.000  0.000  0.000  0.000  0.000  0.000  0.139
    7  0.000  0.000  0.000  0.000  0.000  0.000  0.000  0.000  0.000  0.000
    8  0.000  0.000  0.000  0.000  0.000  0.000  0.000  0.000  0.000  0.000
tot    0.000  0.000  0.426  0.000  0.000  0.000  0.000  0.000  0.000  0.426
 
band    13 # energy   -1.72841915 # occ.  0.00000000
 
ion      s     py     pz     px    dxy    dyz    dz2    dxz  x2-y2    tot
    1  0.000  0.000  0.118  0.000  0.000  0.000  0.000  0.000  0.000  0.118
    2  0.000  0.000  0.118  0.000  0.000  0.000  0.000  0.000  0.000  0.118
    3  0.000  0.000  0.093  0.000  0.000  0.000  0.000  0.000  0.000  0.093
    4  0.000  0.000  0.093  0.000  0.000  0.000  0.000  0.000  0.000  0.093
    5  0.000  0.000  0.003  0.000  0.000  0.000  0.000  0.000  0.000  0.003
    6  0.000  0.000  0.003  0.000  0.000  0.000  0.000  0.000  0.000  0.003
    7  0.000  0.000  0.000  0.000  0.000  0.000  0.000  0.000  0.000  0.000
    8  0.000  0.000  0.000  0.000  0.000  0.000  0.000  0.000  0.000  0.000
tot    0.000  0.000  0.426  0.000  0.000  0.000  0.000  0.000  0.000  0.426
 
band    14 # energy   -1.37726811 # occ.  0.00000000
 
ion      s     py     pz     px    dxy    dyz    dz2    dxz  x2-y2    tot
    1  0.022  0.002  0.000  0.049  0.000  0.000  0.000  0.000  0.000  0.073
    2  0.022  0.002  0.000  0.049  0.000  0.000  0.000  0.000  0.000  0.073
    3  0.021  0.001  0.000  0.048  0.000  0.000  0.000  0.000  0.000  0.069
    4  0.021  0.001  0.000  0.048  0.000  0.000  0.000  0.000  0.000  0.069
    5  0.000  0.000  0.000  0.025  0.000  0.000  0.000  0.000  0.000  0.026
    6  0.000  0.000  0.000  0.025  0.000  0.000  0.000  0.000  0.000  0.026
    7  0.000  0.001  0.000  0.168  0.000  0.000  0.000  0.000  0.000  0.169
    8  0.000  0.001  0.000  0.168  0.000  0.000  0.000  0.000  0.000  0.169
tot    0.086  0.008  0.000  0.579  0.000  0.000  0.000  0.000  0.000  0.673
 
band    15 # energy   -1.37725664 # occ.  0.00000000
 
ion      s     py     pz     px    dxy    dyz    dz2    dxz  x2-y2    tot
    1  0.006  0.032  0.000  0.001  0.000  0.000  0.000  0.000  0.000  0.039
    2  0.006  0.032  0.000  0.001  0.000  0.000  0.000  0.000  0.000  0.039
    3  0.008  0.033  0.000  0.002  0.000  0.000  0.000  0.000  0.000  0.043
    4  0.008  0.033  0.000  0.002  0.000  0.000  0.000  0.000  0.000  0.043
    5  0.028  0.058  0.000  0.000  0.000  0.000  0.000  0.000  0.000  0.086
    6  0.028  0.058  0.000  0.000  0.000  0.000  0.000  0.000  0.000  0.086
    7  0.000  0.168  0.000  0.001  0.000  0.000  0.000  0.000  0.000  0.169
    8  0.000  0.168  0.000  0.001  0.000  0.000  0.000  0.000  0.000  0.169
tot    0.086  0.579  0.000  0.008  0.000  0.000  0.000  0.000  0.000  0.673
 
band    16 # energy   -1.05753098 # occ.  0.00000000
 
ion      s     py     pz     px    dxy    dyz    dz2    dxz  x2-y2    tot
    1  0.000  0.000  0.038  0.000  0.000  0.000  0.000  0.000  0.000  0.038
    2  0.000  0.000  0.038  0.000  0.000  0.000  0.000  0.000  0.000  0.038
    3  0.000  0.000  0.038  0.000  0.000  0.000  0.000  0.000  0.000  0.038
    4  0.000  0.000  0.038  0.000  0.000  0.000  0.000  0.000  0.000  0.038
    5  0.000  0.000  0.151  0.000  0.000  0.000  0.000  0.000  0.000  0.151
    6  0.000  0.000  0.151  0.000  0.000  0.000  0.000  0.000  0.000  0.151
    7  0.000  0.000  0.000  0.000  0.000  0.000  0.000  0.000  0.000  0.000
    8  0.000  0.000  0.000  0.000  0.000  0.000  0.000  0.000  0.000  0.000
tot    0.000  0.000  0.452  0.000  0.000  0.000  0.000  0.000  0.000  0.452
 
band    17 # energy   -1.05751018 # occ.  0.00000000
 
ion      s     py     pz     px    dxy    dyz    dz2    dxz  x2-y2    tot
    1  0.000  0.000  0.113  0.000  0.000  0.000  0.000  0.000  0.000  0.113
    2  0.000  0.000  0.113  0.000  0.000  0.000  0.000  0.000  0.000  0.113
    3  0.000  0.000  0.113  0.000  0.000  0.000  0.000  0.000  0.000  0.113
    4  0.000  0.000  0.113  0.000  0.000  0.000  0.000  0.000  0.000  0.113
    5  0.000  0.000  0.000  0.000  0.000  0.000  0.000  0.000  0.000  0.000
    6  0.000  0.000  0.000  0.000  0.000  0.000  0.000  0.000  0.000  0.000
    7  0.000  0.000  0.000  0.000  0.000  0.000  0.000  0.000  0.000  0.000
    8  0.000  0.000  0.000  0.000  0.000  0.000  0.000  0.000  0.000  0.000
tot    0.000  0.000  0.452  0.000  0.000  0.000  0.000  0.000  0.000  0.452
 
band    18 # energy    0.94181385 # occ.  0.00000000
 
ion      s     py     pz     px    dxy    dyz    dz2    dxz  x2-y2    tot
    1  0.003  0.000  0.000  0.000  0.000  0.000  0.000  0.000  0.000  0.004
    2  0.003  0.000  0.000  0.000  0.000  0.000  0.000  0.000  0.000  0.004
    3  0.003  0.000  0.000  0.000  0.000  0.000  0.000  0.000  0.000  0.004
    4  0.003  0.000  0.000  0.000  0.000  0.000  0.000  0.000  0.000  0.004
    5  0.003  0.000  0.000  0.000  0.000  0.000  0.000  0.000  0.000  0.004
    6  0.003  0.000  0.000  0.000  0.000  0.000  0.000  0.000  0.000  0.004
    7  0.002  0.000  0.000  0.000  0.000  0.000  0.000  0.000  0.000  0.002
    8  0.002  0.000  0.000  0.000  0.000  0.000  0.000  0.000  0.000  0.002
tot    0.026  0.000  0.000  0.000  0.000  0.000  0.000  0.000  0.000  0.026
 
band    19 # energy    1.79722112 # occ.  0.00000000
 
ion      s     py     pz     px    dxy    dyz    dz2    dxz  x2-y2    tot
    1  0.000  0.000  0.000  0.000  0.000  0.000  0.000  0.000  0.000  0.000
    2  0.000  0.000  0.000  0.000  0.000  0.000  0.000  0.000  0.000  0.000
    3  0.000  0.000  0.000  0.000  0.000  0.000  0.000  0.000  0.000  0.000
    4  0.000  0.000  0.000  0.000  0.000  0.000  0.000  0.000  0.000  0.000
    5  0.000  0.000  0.000  0.000  0.000  0.000  0.000  0.000  0.000  0.000
    6  0.000  0.000  0.000  0.000  0.000  0.000  0.000  0.000  0.000  0.000
    7  0.000  0.000  0.026  0.000  0.000  0.000  0.000  0.000  0.000  0.026
    8  0.000  0.000  0.026  0.000  0.000  0.000  0.000  0.000  0.000  0.026
tot    0.000  0.000  0.054  0.000  0.000  0.000  0.000  0.000  0.000  0.054
 
band    20 # energy    2.43878459 # occ.  0.00000000
 
ion      s     py     pz     px    dxy    dyz    dz2    dxz  x2-y2    tot
    1  0.001  0.000  0.000  0.000  0.000  0.000  0.000  0.000  0.000  0.001
    2  0.001  0.000  0.000  0.000  0.000  0.000  0.000  0.000  0.000  0.001
    3  0.001  0.000  0.000  0.000  0.000  0.000  0.000  0.000  0.000  0.001
    4  0.001  0.000  0.000  0.000  0.000  0.000  0.000  0.000  0.000  0.001
    5  0.001  0.000  0.000  0.000  0.000  0.000  0.000  0.000  0.000  0.001
    6  0.001  0.000  0.000  0.000  0.000  0.000  0.000  0.000  0.000  0.001
    7  0.001  0.000  0.000  0.000  0.000  0.000  0.000  0.000  0.000  0.001
    8  0.001  0.000  0.000  0.000  0.000  0.000  0.000  0.000  0.000  0.001
tot    0.008  0.000  0.000  0.000  0.000  0.000  0.000  0.000  0.000  0.008
 
band    21 # energy    2.97058023 # occ.  0.00000000
 
ion      s     py     pz     px    dxy    dyz    dz2    dxz  x2-y2    tot
    1  0.000  0.000  0.013  0.000  0.000  0.000  0.000  0.000  0.000  0.013
    2  0.000  0.000  0.013  0.000  0.000  0.000  0.000  0.000  0.000  0.013
    3  0.000  0.000  0.013  0.000  0.000  0.000  0.000  0.000  0.000  0.013
    4  0.000  0.000  0.013  0.000  0.000  0.000  0.000  0.000  0.000  0.013
    5  0.000  0.000  0.013  0.000  0.000  0.000  0.000  0.000  0.000  0.013
    6  0.000  0.000  0.013  0.000  0.000  0.000  0.000  0.000  0.000  0.013
    7  0.000  0.000  0.104  0.000  0.000  0.000  0.000  0.000  0.000  0.104
    8  0.000  0.000  0.104  0.000  0.000  0.000  0.000  0.000  0.000  0.104
tot    0.000  0.000  0.285  0.000  0.000  0.000  0.000  0.000  0.000  0.285
 
band    22 # energy    4.55295864 # occ.  0.00000000
 
ion      s     py     pz     px    dxy    dyz    dz2    dxz  x2-y2    tot
    1  0.000  0.000  0.009  0.000  0.000  0.000  0.000  0.000  0.000  0.009
    2  0.000  0.000  0.009  0.000  0.000  0.000  0.000  0.000  0.000  0.009
    3  0.000  0.000  0.009  0.000  0.000  0.000  0.000  0.000  0.000  0.009
    4  0.000  0.000  0.009  0.000  0.000  0.000  0.000  0.000  0.000  0.009
    5  0.000  0.000  0.009  0.000  0.000  0.000  0.000  0.000  0.000  0.009
    6  0.000  0.000  0.009  0.000  0.000  0.000  0.000  0.000  0.000  0.009
    7  0.000  0.000  0.001  0.000  0.000  0.000  0.000  0.000  0.000  0.001
    8  0.000  0.000  0.001  0.000  0.000  0.000  0.000  0.000  0.000  0.001
tot    0.000  0.000  0.057  0.000  0.000  0.000  0.000  0.000  0.000  0.057
 
band    23 # energy    5.07149249 # occ.  0.00000000
 
ion      s     py     pz     px    dxy    dyz    dz2    dxz  x2-y2    tot
    1  0.003  0.000  0.000  0.000  0.000  0.000  0.000  0.000  0.000  0.003
    2  0.003  0.000  0.000  0.000  0.000  0.000  0.000  0.000  0.000  0.003
    3  0.003  0.000  0.000  0.000  0.000  0.000  0.000  0.000  0.000  0.003
    4  0.003  0.000  0.000  0.000  0.000  0.000  0.000  0.000  0.000  0.003
    5  0.003  0.000  0.000  0.000  0.000  0.000  0.000  0.000  0.000  0.003
    6  0.003  0.000  0.000  0.000  0.000  0.000  0.000  0.000  0.000  0.003
    7  0.001  0.000  0.000  0.000  0.000  0.000  0.000  0.000  0.000  0.001
    8  0.001  0.000  0.000  0.000  0.000  0.000  0.000  0.000  0.000  0.001
tot    0.019  0.000  0.000  0.000  0.000  0.000  0.000  0.000  0.000  0.019
 
band    24 # energy    6.42547965 # occ.  0.00000000
 
ion      s     py     pz     px    dxy    dyz    dz2    dxz  x2-y2    tot
    1  0.000  0.041  0.000  0.014  0.000  0.000  0.000  0.000  0.000  0.055
    2  0.000  0.041  0.000  0.014  0.000  0.000  0.000  0.000  0.000  0.055
    3  0.000  0.041  0.000  0.014  0.000  0.000  0.000  0.000  0.000  0.055
    4  0.000  0.041  0.000  0.014  0.000  0.000  0.000  0.000  0.000  0.055
    5  0.000  0.000  0.000  0.055  0.000  0.000  0.000  0.000  0.000  0.055
    6  0.000  0.000  0.000  0.055  0.000  0.000  0.000  0.000  0.000  0.055
    7  0.059  0.000  0.000  0.000  0.000  0.000  0.000  0.000  0.000  0.059
    8  0.059  0.000  0.000  0.000  0.000  0.000  0.000  0.000  0.000  0.059
tot    0.117  0.165  0.000  0.165  0.000  0.000  0.000  0.000  0.000  0.447
 
band    25 # energy    7.00707687 # occ.  0.00000000
 
ion      s     py     pz     px    dxy    dyz    dz2    dxz  x2-y2    tot
    1  0.016  0.005  0.000  0.013  0.000  0.000  0.000  0.000  0.000  0.033
    2  0.016  0.005  0.000  0.013  0.000  0.000  0.000  0.000  0.000  0.033
    3  0.009  0.008  0.000  0.007  0.000  0.000  0.000  0.000  0.000  0.023
    4  0.009  0.008  0.000  0.007  0.000  0.000  0.000  0.000  0.000  0.023
    5  0.015  0.012  0.000  0.005  0.000  0.000  0.000  0.000  0.000  0.032
    6  0.015  0.012  0.000  0.005  0.000  0.000  0.000  0.000  0.000  0.032
    7  0.000  0.032  0.000  0.040  0.000  0.000  0.000  0.000  0.000  0.072
    8  0.000  0.032  0.000  0.040  0.000  0.000  0.000  0.000  0.000  0.072
tot    0.078  0.113  0.000  0.129  0.000  0.000  0.000  0.000  0.000  0.321
 
band    26 # energy    7.00708035 # occ.  0.00000000
 
ion      s     py     pz     px    dxy    dyz    dz2    dxz  x2-y2    tot
    1  0.010  0.009  0.000  0.006  0.000  0.000  0.000  0.000  0.000  0.025
    2  0.010  0.009  0.000  0.006  0.000  0.000  0.000  0.000  0.000  0.025
    3  0.017  0.006  0.000  0.012  0.000  0.000  0.000  0.000  0.000  0.036
    4  0.017  0.006  0.000  0.012  0.000  0.000  0.000  0.000  0.000  0.036
    5  0.012  0.010  0.000  0.006  0.000  0.000  0.000  0.000  0.000  0.027
    6  0.012  0.010  0.000  0.006  0.000  0.000  0.000  0.000  0.000  0.027
    7  0.000  0.040  0.000  0.032  0.000  0.000  0.000  0.000  0.000  0.072
    8  0.000  0.040  0.000  0.032  0.000  0.000  0.000  0.000  0.000  0.072
tot    0.078  0.129  0.000  0.113  0.000  0.000  0.000  0.000  0.000  0.321
 
band    27 # energy    7.33304213 # occ.  0.00000000
 
ion      s     py     pz     px    dxy    dyz    dz2    dxz  x2-y2    tot
    1  0.009  0.008  0.000  0.025  0.000  0.000  0.000  0.000  0.000  0.043
    2  0.009  0.008  0.000  0.025  0.000  0.000  0.000  0.000  0.000  0.043
    3  0.009  0.008  0.000  0.025  0.000  0.000  0.000  0.000  0.000  0.043
    4  0.009  0.008  0.000  0.025  0.000  0.000  0.000  0.000  0.000  0.043
    5  0.009  0.034  0.000  0.000  0.000  0.000  0.000  0.000  0.000  0.043
    6  0.009  0.034  0.000  0.000  0.000  0.000  0.000  0.000  0.000  0.043
    7  0.094  0.000  0.000  0.000  0.000  0.000  0.000  0.000  0.000  0.094
    8  0.094  0.000  0.000  0.000  0.000  0.000  0.000  0.000  0.000  0.094
tot    0.243  0.101  0.000  0.101  0.000  0.000  0.000  0.000  0.000  0.446
 
band    28 # energy    8.15887601 # occ.  0.00000000
 
ion      s     py     pz     px    dxy    dyz    dz2    dxz  x2-y2    tot
    1  0.004  0.005  0.000  0.043  0.000  0.000  0.000  0.000  0.000  0.052
    2  0.004  0.005  0.000  0.043  0.000  0.000  0.000  0.000  0.000  0.052
    3  0.001  0.014  0.000  0.009  0.000  0.000  0.000  0.000  0.000  0.024
    4  0.001  0.014  0.000  0.009  0.000  0.000  0.000  0.000  0.000  0.024
    5  0.004  0.042  0.000  0.006  0.000  0.000  0.000  0.000  0.000  0.051
    6  0.004  0.042  0.000  0.006  0.000  0.000  0.000  0.000  0.000  0.051
    7  0.000  0.001  0.000  0.000  0.000  0.000  0.000  0.000  0.000  0.001
    8  0.000  0.001  0.000  0.000  0.000  0.000  0.000  0.000  0.000  0.001
tot    0.015  0.124  0.000  0.116  0.000  0.000  0.000  0.000  0.000  0.255
 
band    29 # energy    8.15888608 # occ.  0.00000000
 
ion      s     py     pz     px    dxy    dyz    dz2    dxz  x2-y2    tot
    1  0.001  0.024  0.000  0.007  0.000  0.000  0.000  0.000  0.000  0.032
    2  0.002  0.024  0.000  0.007  0.000  0.000  0.000  0.000  0.000  0.032
    3  0.005  0.015  0.000  0.041  0.000  0.000  0.000  0.000  0.000  0.060
    4  0.005  0.015  0.000  0.041  0.000  0.000  0.000  0.000  0.000  0.060
    5  0.002  0.019  0.000  0.013  0.000  0.000  0.000  0.000  0.000  0.033
    6  0.002  0.019  0.000  0.013  0.000  0.000  0.000  0.000  0.000  0.033
    7  0.000  0.000  0.000  0.001  0.000  0.000  0.000  0.000  0.000  0.001
    8  0.000  0.000  0.000  0.001  0.000  0.000  0.000  0.000  0.000  0.001
tot    0.015  0.116  0.000  0.123  0.000  0.000  0.000  0.000  0.000  0.254
 
band    30 # energy    8.53814383 # occ.  0.00000000
 
ion      s     py     pz     px    dxy    dyz    dz2    dxz  x2-y2    tot
    1  0.000  0.000  0.009  0.000  0.000  0.000  0.000  0.000  0.000  0.009
    2  0.000  0.000  0.009  0.000  0.000  0.000  0.000  0.000  0.000  0.009
    3  0.000  0.000  0.009  0.000  0.000  0.000  0.000  0.000  0.000  0.009
    4  0.000  0.000  0.009  0.000  0.000  0.000  0.000  0.000  0.000  0.009
    5  0.000  0.000  0.009  0.000  0.000  0.000  0.000  0.000  0.000  0.009
    6  0.000  0.000  0.009  0.000  0.000  0.000  0.000  0.000  0.000  0.009
    7  0.000  0.000  0.002  0.000  0.000  0.000  0.000  0.000  0.000  0.002
    8  0.000  0.000  0.002  0.000  0.000  0.000  0.000  0.000  0.000  0.002
tot    0.000  0.000  0.056  0.000  0.000  0.000  0.000  0.000  0.000  0.056
 
band    31 # energy    9.28580844 # occ.  0.00000000
 
ion      s     py     pz     px    dxy    dyz    dz2    dxz  x2-y2    tot
    1  0.000  0.000  0.000  0.001  0.000  0.000  0.000  0.000  0.000  0.003
    2  0.000  0.001  0.000  0.001  0.000  0.000  0.000  0.000  0.000  0.003
    3  0.000  0.000  0.000  0.001  0.000  0.000  0.000  0.000  0.000  0.002
    4  0.001  0.000  0.000  0.002  0.000  0.000  0.000  0.000  0.000  0.003
    5  0.000  0.002  0.000  0.000  0.000  0.000  0.000  0.000  0.000  0.002
    6  0.000  0.002  0.000  0.000  0.000  0.000  0.000  0.000  0.000  0.003
    7  0.042  0.000  0.000  0.000  0.000  0.000  0.000  0.000  0.000  0.043
    8  0.043  0.000  0.000  0.000  0.000  0.000  0.000  0.000  0.000  0.043
tot    0.088  0.005  0.002  0.005  0.000  0.000  0.000  0.000  0.000  0.101
 
band    32 # energy    9.32025285 # occ.  0.00000000
 
ion      s     py     pz     px    dxy    dyz    dz2    dxz  x2-y2    tot
    1  0.000  0.000  0.119  0.000  0.000  0.000  0.000  0.000  0.000  0.119
    2  0.000  0.000  0.120  0.000  0.000  0.000  0.000  0.000  0.000  0.120
    3  0.000  0.000  0.119  0.000  0.000  0.000  0.000  0.000  0.000  0.119
    4  0.000  0.000  0.118  0.000  0.000  0.000  0.000  0.000  0.000  0.118
    5  0.000  0.000  0.118  0.000  0.000  0.000  0.000  0.000  0.000  0.118
    6  0.000  0.000  0.118  0.000  0.000  0.000  0.000  0.000  0.000  0.119
    7  0.000  0.000  0.000  0.000  0.000  0.000  0.000  0.000  0.000  0.001
    8  0.000  0.000  0.000  0.000  0.000  0.000  0.000  0.000  0.000  0.000
tot    0.001  0.000  0.712  0.000  0.000  0.000  0.000  0.000  0.000  0.713
 
band    33 # energy    9.41142491 # occ.  0.00000000
 
ion      s     py     pz     px    dxy    dyz    dz2    dxz  x2-y2    tot
    1  0.000  0.007  0.000  0.002  0.000  0.000  0.000  0.000  0.000  0.009
    2  0.000  0.007  0.000  0.002  0.000  0.000  0.000  0.000  0.000  0.009
    3  0.000  0.007  0.000  0.002  0.000  0.000  0.000  0.000  0.000  0.009
    4  0.000  0.006  0.000  0.002  0.000  0.000  0.000  0.000  0.000  0.009
    5  0.000  0.000  0.000  0.008  0.000  0.000  0.000  0.000  0.000  0.008
    6  0.000  0.000  0.000  0.008  0.000  0.000  0.000  0.000  0.000  0.008
    7  0.036  0.000  0.000  0.000  0.000  0.000  0.000  0.000  0.000  0.036
    8  0.039  0.000  0.000  0.000  0.000  0.000  0.000  0.000  0.000  0.039
tot    0.075  0.027  0.002  0.023  0.000  0.000  0.000  0.000  0.000  0.128
 
band    34 # energy    9.49958885 # occ.  0.00000000
 
ion      s     py     pz     px    dxy    dyz    dz2    dxz  x2-y2    tot
    1  0.007  0.000  0.000  0.001  0.000  0.000  0.000  0.000  0.000  0.007
    2  0.006  0.000  0.000  0.000  0.000  0.000  0.000  0.000  0.000  0.007
    3  0.005  0.000  0.000  0.000  0.000  0.000  0.000  0.000  0.000  0.005
    4  0.008  0.000  0.000  0.001  0.000  0.000  0.000  0.000  0.000  0.009
    5  0.007  0.000  0.000  0.000  0.000  0.000  0.000  0.000  0.000  0.007
    6  0.006  0.001  0.000  0.000  0.000  0.000  0.000  0.000  0.000  0.007
    7  0.014  0.000  0.000  0.000  0.000  0.000  0.000  0.000  0.000  0.015
    8  0.012  0.000  0.000  0.000  0.000  0.000  0.000  0.000  0.000  0.012
tot    0.064  0.002  0.001  0.002  0.000  0.000  0.000  0.000  0.000  0.068
 
band    35 # energy    9.63939527 # occ.  0.00000000
 
ion      s     py     pz     px    dxy    dyz    dz2    dxz  x2-y2    tot
    1  0.108  0.001  0.000  0.001  0.000  0.000  0.000  0.000  0.000  0.110
    2  0.113  0.001  0.000  0.001  0.000  0.000  0.000  0.000  0.000  0.115
    3  0.107  0.000  0.000  0.001  0.000  0.000  0.000  0.000  0.000  0.109
    4  0.106  0.000  0.000  0.001  0.000  0.000  0.000  0.000  0.000  0.108
    5  0.112  0.002  0.000  0.000  0.000  0.000  0.000  0.000  0.000  0.114
    6  0.111  0.002  0.000  0.000  0.000  0.000  0.000  0.000  0.000  0.114
    7  0.000  0.000  0.001  0.000  0.000  0.000  0.000  0.000  0.000  0.001
    8  0.000  0.000  0.000  0.000  0.000  0.000  0.000  0.000  0.000  0.000
tot    0.658  0.006  0.002  0.005  0.000  0.000  0.000  0.000  0.000  0.671
 
band    36 # energy    9.67627675 # occ.  0.00000000
 
ion      s     py     pz     px    dxy    dyz    dz2    dxz  x2-y2    tot
    1  0.000  0.000  0.000  0.000  0.000  0.000  0.000  0.000  0.000  0.001
    2  0.001  0.000  0.000  0.000  0.000  0.000  0.000  0.000  0.000  0.001
    3  0.000  0.000  0.000  0.000  0.000  0.000  0.000  0.000  0.000  0.000
    4  0.001  0.000  0.000  0.000  0.000  0.000  0.000  0.000  0.000  0.001
    5  0.000  0.000  0.000  0.000  0.000  0.000  0.000  0.000  0.000  0.001
    6  0.001  0.000  0.000  0.000  0.000  0.000  0.000  0.000  0.000  0.001
    7  0.000  0.000  0.006  0.000  0.000  0.000  0.000  0.000  0.000  0.007
    8  0.000  0.000  0.027  0.000  0.000  0.000  0.000  0.000  0.000  0.028
tot    0.002  0.001  0.036  0.000  0.000  0.000  0.000  0.000  0.000  0.039
 
band    37 # energy    9.69522966 # occ.  0.00000000
 
ion      s     py     pz     px    dxy    dyz    dz2    dxz  x2-y2    tot
    1  0.003  0.001  0.003  0.001  0.000  0.000  0.000  0.000  0.000  0.009
    2  0.009  0.001  0.003  0.000  0.000  0.000  0.000  0.000  0.000  0.014
    3  0.007  0.001  0.002  0.002  0.000  0.000  0.000  0.000  0.000  0.012
    4  0.010  0.001  0.003  0.001  0.000  0.000  0.000  0.000  0.000  0.016