  16  16   0  16
  0.2062353E+02  0.5040000E-09  0.5040000E-09  0.1500000E-08  0.5000000E-15
  1.000000000000000E-004
  CAR 
 Lattice                                 
      9.76690940    -21.30944890  301     -0.96617678      1.00000000
    -21.309  0.0000E+00  0.0000E+00  0.0000E+00  0.0000E+00
    -21.206  0.0000E+00  0.0000E+00  0.0000E+00  0.0000E+00
    -21.102  0.0000E+00  0.0000E+00  0.0000E+00  0.0000E+00
    -20.999  0.0000E+00  0.0000E+00  0.0000E+00  0.0000E+00
    -20.895  0.0000E+00  0.0000E+00  0.0000E+00  0.0000E+00
    -20.792  0.0000E+00  0.0000E+00  0.0000E+00  0.0000E+00
    -20.688  0.0000E+00  0.0000E+00  0.0000E+00  0.0000E+00
    -20.584  0.0000E+00  0.0000E+00  0.0000E+00  0.0000E+00
    -20.481  0.2907E-19  0.2907E-19  0.3012E-20  0.3012E-20
    -20.377  0.3204E-14  0.3204E-14  0.3319E-15  0.3319E-15
    -20.274  0.3235E-10  0.3235E-10  0.3352E-11  0.3352E-11
    -20.170  0.4489E-07  0.4489E-07  0.4653E-08  0.4653E-08
    -20.066  0.9257E-05  0.9257E-05  0.9636E-06  0.9636E-06
    -19.963  0.3130E-03  0.3130E-03  0.3339E-04  0.3339E-04
    -19.859  0.2125E-02  0.2125E-02  0.2535E-03  0.2535E-03
    -19.756  0.4400E-02  0.4400E-02  0.7093E-03  0.7093E-03
    -19.652  0.4898E-02  0.4898E-02  0.1217E-02  0.1217E-02
    -19.548  0.5162E-02  0.5162E-02  0.1751E-02  0.1751E-02
    -19.445  0.4638E-02  0.4638E-02  0.2232E-02  0.2232E-02
    -19.341  0.5670E-02  0.5670E-02  0.2819E-02  0.2819E-02
    -19.238  0.4269E-02  0.4269E-02  0.3261E-02  0.3261E-02
    -19.134  0.5245E-02  0.5245E-02  0.3805E-02  0.3805E-02
    -19.031  0.5907E-02  0.5907E-02  0.4417E-02  0.4417E-02
    -18.927  0.3656E-02  0.3656E-02  0.4795E-02  0.4795E-02
    -18.823  0.5303E-02  0.5303E-02  0.5345E-02  0.5345E-02
    -18.720  0.6357E-02  0.6357E-02  0.6003E-02  0.6003E-02
    -18.616  0.4443E-02  0.4443E-02  0.6463E-02  0.6463E-02
    -18.513  0.3373E-02  0.3373E-02  0.6813E-02  0.6813E-02
    -18.409  0.6726E-02  0.6726E-02  0.7510E-02  0.7510E-02
    -18.305  0.6018E-02  0.6018E-02  0.8133E-02  0.8133E-02
    -18.202  0.4240E-02  0.4240E-02  0.8572E-02  0.8572E-02
    -18.098  0.3492E-02  0.3492E-02  0.8934E-02  0.8934E-02
    -17.995  0.7607E-02  0.7607E-02  0.9722E-02  0.9722E-02
    -17.891  0.1266E-01  0.1266E-01  0.1103E-01  0.1103E-01
    -17.787  0.1149E-01  0.1149E-01  0.1222E-01  0.1222E-01
    -17.684  0.1128E-01  0.1128E-01  0.1339E-01  0.1339E-01
    -17.580  0.1324E-01  0.1324E-01  0.1476E-01  0.1476E-01
    -17.477  0.1724E-01  0.1724E-01  0.1655E-01  0.1655E-01
    -17.373  0.2147E-01  0.2147E-01  0.1877E-01  0.1877E-01
    -17.270  0.1884E-01  0.1884E-01  0.2072E-01  0.2072E-01
    -17.166  0.7764E-02  0.7764E-02  0.2153E-01  0.2153E-01
    -17.062  0.4619E-02  0.4619E-02  0.2201E-01  0.2201E-01
    -16.959  0.7213E-02  0.7213E-02  0.2275E-01  0.2275E-01
    -16.855  0.6782E-02  0.6782E-02  0.2346E-01  0.2346E-01
    -16.752  0.5557E-02  0.5557E-02  0.2403E-01  0.2403E-01
    -16.648  0.4605E-02  0.4605E-02  0.2451E-01  0.2451E-01
    -16.544  0.2760E-02  0.2760E-02  0.2480E-01  0.2480E-01
    -16.441  0.4202E-02  0.4202E-02  0.2523E-01  0.2523E-01
    -16.337  0.9246E-02  0.9246E-02  0.2619E-01  0.2619E-01
    -16.234  0.6397E-02  0.6397E-02  0.2685E-01  0.2685E-01
    -16.130  0.4792E-02  0.4792E-02  0.2735E-01  0.2735E-01
    -16.026  0.4300E-02  0.4300E-02  0.2779E-01  0.2779E-01
    -15.923  0.4219E-02  0.4219E-02  0.2823E-01  0.2823E-01
    -15.819  0.3731E-02  0.3731E-02  0.2862E-01  0.2862E-01
    -15.716  0.9096E-02  0.9096E-02  0.2956E-01  0.2956E-01
    -15.612  0.1358E-01  0.1358E-01  0.3097E-01  0.3097E-01
    -15.509  0.1418E-01  0.1418E-01  0.3243E-01  0.3243E-01
    -15.405  0.1631E-01  0.1631E-01  0.3412E-01  0.3412E-01
    -15.301  0.1408E-01  0.1408E-01  0.3558E-01  0.3558E-01
    -15.198  0.1201E-01  0.1201E-01  0.3683E-01  0.3683E-01
    -15.094  0.1397E-01  0.1397E-01  0.3827E-01  0.3827E-01
    -14.991  0.1854E-01  0.1854E-01  0.4019E-01  0.4019E-01
    -14.887  0.1528E-01  0.1528E-01  0.4178E-01  0.4178E-01
    -14.783  0.1349E-01  0.1349E-01  0.4317E-01  0.4317E-01
    -14.680  0.1007E-01  0.1007E-01  0.4422E-01  0.4422E-01
    -14.576  0.1022E-01  0.1022E-01  0.4528E-01  0.4528E-01
    -14.473  0.1568E-01  0.1568E-01  0.4690E-01  0.4690E-01
    -14.369  0.2069E-01  0.2069E-01  0.4904E-01  0.4904E-01
    -14.265  0.1460E-01  0.1460E-01  0.5056E-01  0.5056E-01
    -14.162  0.9337E-02  0.9337E-02  0.5152E-01  0.5152E-01
    -14.058  0.7542E-02  0.7542E-02  0.5230E-01  0.5230E-01
    -13.955  0.8057E-02  0.8057E-02  0.5314E-01  0.5314E-01
    -13.851  0.7799E-02  0.7799E-02  0.5395E-01  0.5395E-01
    -13.748  0.5659E-02  0.5659E-02  0.5453E-01  0.5453E-01
    -13.644  0.3333E-02  0.3333E-02  0.5488E-01  0.5488E-01
    -13.540  0.4652E-02  0.4652E-02  0.5536E-01  0.5536E-01
    -13.437  0.4446E-02  0.4446E-02  0.5582E-01  0.5582E-01
    -13.333  0.6055E-02  0.6055E-02  0.5645E-01  0.5645E-01
    -13.230  0.5906E-02  0.5906E-02  0.5706E-01  0.5706E-01
    -13.126  0.6328E-02  0.6328E-02  0.5771E-01  0.5771E-01
    -13.022  0.8071E-02  0.8071E-02  0.5855E-01  0.5855E-01
    -12.919  0.7378E-02  0.7378E-02  0.5932E-01  0.5932E-01
    -12.815  0.8494E-02  0.8494E-02  0.6019E-01  0.6019E-01
    -12.712  0.5991E-02  0.5991E-02  0.6082E-01  0.6082E-01
    -12.608  0.6712E-02  0.6712E-02  0.6151E-01  0.6151E-01
    -12.504  0.5367E-02  0.5367E-02  0.6207E-01  0.6207E-01
    -12.401  0.3958E-02  0.3958E-02  0.6248E-01  0.6248E-01
    -12.297  0.8572E-02  0.8572E-02  0.6336E-01  0.6336E-01
    -12.194  0.7106E-02  0.7106E-02  0.6410E-01  0.6410E-01
    -12.090  0.6793E-02  0.6793E-02  0.6480E-01  0.6480E-01
    -11.987  0.1192E-01  0.1192E-01  0.6604E-01  0.6604E-01
    -11.883  0.1627E-01  0.1627E-01  0.6773E-01  0.6773E-01
    -11.779  0.1524E-01  0.1524E-01  0.6930E-01  0.6930E-01
    -11.676  0.1462E-01  0.1462E-01  0.7082E-01  0.7082E-01
    -11.572  0.1607E-01  0.1607E-01  0.7248E-01  0.7248E-01
    -11.469  0.1558E-01  0.1558E-01  0.7410E-01  0.7410E-01
    -11.365  0.8321E-02  0.8321E-02  0.7496E-01  0.7496E-01
    -11.261  0.9211E-02  0.9211E-02  0.7591E-01  0.7591E-01
    -11.158  0.1163E-01  0.1163E-01  0.7712E-01  0.7712E-01
    -11.054  0.1209E-01  0.1209E-01  0.7837E-01  0.7837E-01
    -10.951  0.6315E-02  0.6315E-02  0.7902E-01  0.7902E-01
    -10.847  0.5550E-02  0.5550E-02  0.7960E-01  0.7960E-01
    -10.743  0.1462E-01  0.1462E-01  0.8111E-01  0.8111E-01
    -10.640  0.1837E-01  0.1837E-01  0.8302E-01  0.8302E-01
    -10.536  0.9088E-02  0.9088E-02  0.8396E-01  0.8396E-01
    -10.433  0.5996E-02  0.5996E-02  0.8458E-01  0.8458E-01
    -10.329  0.1105E-01  0.1105E-01  0.8572E-01  0.8572E-01
    -10.226  0.1923E-01  0.1923E-01  0.8772E-01  0.8772E-01
    -10.122  0.1633E-01  0.1633E-01  0.8941E-01  0.8941E-01
    -10.018  0.8661E-02  0.8661E-02  0.9030E-01  0.9030E-01
     -9.915  0.8783E-02  0.8783E-02  0.9121E-01  0.9121E-01
     -9.811  0.9606E-02  0.9606E-02  0.9221E-01  0.9221E-01
     -9.708  0.1177E-01  0.1177E-01  0.9343E-01  0.9343E-01
     -9.604  0.9113E-02  0.9113E-02  0.9437E-01  0.9437E-01
     -9.500  0.1060E-01  0.1060E-01  0.9547E-01  0.9547E-01
     -9.397  0.9669E-02  0.9669E-02  0.9647E-01  0.9647E-01
     -9.293  0.9668E-02  0.9668E-02  0.9747E-01  0.9747E-01
     -9.190  0.9372E-02  0.9372E-02  0.9844E-01  0.9844E-01
     -9.086  0.3257E-02  0.3257E-02  0.9878E-01  0.9878E-01
     -8.982  0.4811E-02  0.4811E-02  0.9928E-01  0.9928E-01
     -8.879  0.1296E-01  0.1296E-01  0.1006E+00  0.1006E+00
     -8.775  0.1885E-01  0.1885E-01  0.1026E+00  0.1026E+00
     -8.672  0.1643E-01  0.1643E-01  0.1043E+00  0.1043E+00
     -8.568  0.8740E-02  0.8740E-02  0.1052E+00  0.1052E+00
     -8.465  0.8514E-02  0.8514E-02  0.1061E+00  0.1061E+00
     -8.361  0.1006E-01  0.1006E-01  0.1071E+00  0.1071E+00
     -8.257  0.1792E-01  0.1792E-01  0.1090E+00  0.1090E+00
     -8.154  0.2360E-01  0.2360E-01  0.1114E+00  0.1114E+00
     -8.050  0.2298E-01  0.2298E-01  0.1138E+00  0.1138E+00
     -7.947  0.1599E-01  0.1599E-01  0.1154E+00  0.1154E+00
     -7.843  0.1351E-01  0.1351E-01  0.1168E+00  0.1168E+00
     -7.739  0.1418E-01  0.1418E-01  0.1183E+00  0.1183E+00
     -7.636  0.2506E-01  0.2506E-01  0.1209E+00  0.1209E+00
     -7.532  0.2780E-01  0.2780E-01  0.1238E+00  0.1238E+00
     -7.429  0.2124E-01  0.2124E-01  0.1260E+00  0.1260E+00
     -7.325  0.2091E-01  0.2091E-01  0.1282E+00  0.1282E+00
     -7.221  0.2396E-01  0.2396E-01  0.1306E+00  0.1306E+00
     -7.118  0.2404E-01  0.2404E-01  0.1331E+00  0.1331E+00
     -7.014  0.2664E-01  0.2664E-01  0.1359E+00  0.1359E+00
     -6.911  0.2266E-01  0.2266E-01  0.1382E+00  0.1382E+00
     -6.807  0.1971E-01  0.1971E-01  0.1403E+00  0.1403E+00
     -6.704  0.2711E-01  0.2711E-01  0.1431E+00  0.1431E+00
     -6.600  0.2402E-01  0.2402E-01  0.1456E+00  0.1456E+00
     -6.496  0.2194E-01  0.2194E-01  0.1478E+00  0.1478E+00
     -6.393  0.2496E-01  0.2496E-01  0.1504E+00  0.1504E+00
     -6.289  0.2406E-01  0.2406E-01  0.1529E+00  0.1529E+00
     -6.186  0.2309E-01  0.2309E-01  0.1553E+00  0.1553E+00
     -6.082  0.1817E-01  0.1817E-01  0.1572E+00  0.1572E+00
     -5.978  0.1722E-01  0.1722E-01  0.1590E+00  0.1590E+00
     -5.875  0.2111E-01  0.2111E-01  0.1612E+00  0.1612E+00
     -5.771  0.2617E-01  0.2617E-01  0.1639E+00  0.1639E+00
     -5.668  0.2043E-01  0.2043E-01  0.1660E+00  0.1660E+00
     -5.564  0.1994E-01  0.1994E-01  0.1681E+00  0.1681E+00
     -5.461  0.2246E-01  0.2246E-01  0.1704E+00  0.1704E+00
     -5.357  0.2732E-01  0.2732E-01  0.1732E+00  0.1732E+00
     -5.253  0.2708E-01  0.2708E-01  0.1760E+00  0.1760E+00
     -5.150  0.1599E-01  0.1599E-01  0.1777E+00  0.1777E+00
     -5.046  0.1130E-01  0.1130E-01  0.1788E+00  0.1788E+00
     -4.943  0.1731E-01  0.1731E-01  0.1806E+00  0.1806E+00
     -4.839  0.1923E-01  0.1923E-01  0.1826E+00  0.1826E+00
     -4.735  0.1753E-01  0.1753E-01  0.1844E+00  0.1844E+00
     -4.632  0.1583E-01  0.1583E-01  0.1861E+00  0.1861E+00
     -4.528  0.1654E-01  0.1654E-01  0.1878E+00  0.1878E+00
     -4.425  0.1909E-01  0.1909E-01  0.1898E+00  0.1898E+00
     -4.321  0.2053E-01  0.2053E-01  0.1919E+00  0.1919E+00
     -4.217  0.2568E-01  0.2568E-01  0.1946E+00  0.1946E+00
     -4.114  0.4019E-01  0.4019E-01  0.1987E+00  0.1987E+00
     -4.010  0.3714E-01  0.3714E-01  0.2026E+00  0.2026E+00
     -3.907  0.2694E-01  0.2694E-01  0.2054E+00  0.2054E+00
     -3.803  0.1802E-01  0.1802E-01  0.2072E+00  0.2072E+00
     -3.700  0.1374E-01  0.1374E-01  0.2087E+00  0.2087E+00
     -3.596  0.1475E-01  0.1475E-01  0.2102E+00  0.2102E+00
     -3.492  0.1725E-01  0.1725E-01  0.2120E+00  0.2120E+00
     -3.389  0.2216E-01  0.2216E-01  0.2143E+00  0.2143E+00
     -3.285  0.1636E-01  0.1636E-01  0.2160E+00  0.2160E+00
     -3.182  0.1431E-01  0.1431E-01  0.2174E+00  0.2174E+00
     -3.078  0.1611E-01  0.1611E-01  0.2191E+00  0.2191E+00
     -2.974  0.1945E-01  0.1945E-01  0.2211E+00  0.2211E+00
     -2.871  0.2605E-01  0.2605E-01  0.2238E+00  0.2238E+00
     -2.767  0.1636E-01  0.1636E-01  0.2255E+00  0.2255E+00
     -2.664  0.1344E-01  0.1344E-01  0.2269E+00  0.2269E+00
     -2.560  0.2083E-01  0.2083E-01  0.2291E+00  0.2291E+00
     -2.456  0.2173E-01  0.2173E-01  0.2313E+00  0.2313E+00
     -2.353  0.1876E-01  0.1876E-01  0.2333E+00  0.2333E+00
     -2.249  0.2154E-01  0.2154E-01  0.2355E+00  0.2355E+00
     -2.146  0.1822E-01  0.1822E-01  0.2374E+00  0.2374E+00
     -2.042  0.6298E-02  0.6298E-02  0.2380E+00  0.2380E+00
     -1.939  0.3429E-02  0.3429E-02  0.2384E+00  0.2384E+00
     -1.835  0.7939E-02  0.7939E-02  0.2392E+00  0.2392E+00
     -1.731  0.6109E-02  0.6109E-02  0.2398E+00  0.2398E+00
     -1.628  0.4387E-02  0.4387E-02  0.2403E+00  0.2403E+00
     -1.524  0.7398E-02  0.7398E-02  0.2411E+00  0.2411E+00
     -1.421  0.5871E-02  0.5871E-02  0.2417E+00  0.2417E+00
     -1.317  0.2970E-02  0.2970E-02  0.2420E+00  0.2420E+00
     -1.213  0.8393E-03  0.8393E-03  0.2421E+00  0.2421E+00
     -1.110  0.9048E-04  0.9048E-04  0.2421E+00  0.2421E+00
     -1.006  0.4175E-03  0.4175E-03  0.2421E+00  0.2421E+00
     -0.903  0.2447E-02  0.2447E-02  0.2424E+00  0.2424E+00
     -0.799  0.3931E-02  0.3931E-02  0.2428E+00  0.2428E+00
     -0.695  0.4695E-02  0.4695E-02  0.2433E+00  0.2433E+00
     -0.592  0.9839E-02  0.9839E-02  0.2443E+00  0.2443E+00
     -0.488  0.1057E-01  0.1057E-01  0.2454E+00  0.2454E+00
     -0.385  0.9645E-02  0.9645E-02  0.2464E+00  0.2464E+00
     -0.281  0.1250E-01  0.1250E-01  0.2477E+00  0.2477E+00
     -0.178  0.1165E-01  0.1165E-01  0.2489E+00  0.2489E+00
     -0.074  0.6967E-02  0.6967E-02  0.2496E+00  0.2496E+00
      0.030  0.2780E-02  0.2780E-02  0.2499E+00  0.2499E+00
      0.133  0.8882E-03  0.8882E-03  0.2500E+00  0.2500E+00
      0.237  0.9405E-03  0.9405E-03  0.2501E+00  0.2501E+00
      0.340  0.5199E-02  0.5199E-02  0.2506E+00  0.2506E+00
      0.444  0.1003E-01  0.1003E-01  0.2517E+00  0.2517E+00
      0.548  0.8238E-02  0.8238E-02  0.2525E+00  0.2525E+00
      0.651  0.3648E-02  0.3648E-02  0.2529E+00  0.2529E+00
      0.755  0.5444E-02  0.5444E-02  0.2535E+00  0.2535E+00
      0.858  0.1186E-01  0.1186E-01  0.2547E+00  0.2547E+00
      0.962  0.1325E-01  0.1325E-01  0.2561E+00  0.2561E+00
      1.066  0.1188E-01  0.1188E-01  0.2573E+00  0.2573E+00
      1.169  0.5809E-02  0.5809E-02  0.2579E+00  0.2579E+00
      1.273  0.4512E-02  0.4512E-02  0.2584E+00  0.2584E+00
      1.376  0.5500E-02  0.5500E-02  0.2589E+00  0.2589E+00
      1.480  0.5098E-02  0.5098E-02  0.2595E+00  0.2595E+00
      1.583  0.6249E-02  0.6249E-02  0.2601E+00  0.2601E+00
      1.687  0.1014E-01  0.1014E-01  0.2612E+00  0.2612E+00
      1.791  0.1023E-01  0.1023E-01  0.2622E+00  0.2622E+00
      1.894  0.4390E-02  0.4389E-02  0.2627E+00  0.2627E+00
      1.998  0.2310E-02  0.2310E-02  0.2629E+00  0.2629E+00
      2.101  0.6999E-02  0.6999E-02  0.2636E+00  0.2636E+00
      2.205  0.1579E-01  0.1579E-01  0.2653E+00  0.2653E+00
      2.309  0.1492E-01  0.1492E-01  0.2668E+00  0.2668E+00
      2.412  0.1144E-01  0.1144E-01  0.2680E+00  0.2680E+00
      2.516  0.1145E-01  0.1145E-01  0.2692E+00  0.2692E+00
      2.619  0.1197E-01  0.1197E-01  0.2704E+00  0.2704E+00
      2.723  0.1139E-01  0.1139E-01  0.2716E+00  0.2716E+00
      2.827  0.8041E-02  0.8041E-02  0.2724E+00  0.2724E+00
      2.930  0.7174E-02  0.7176E-02  0.2732E+00  0.2732E+00
      3.034  0.1242E-01  0.1242E-01  0.2745E+00  0.2745E+00
      3.137  0.1331E-01  0.1331E-01  0.2758E+00  0.2758E+00
      3.241  0.1349E-01  0.1349E-01  0.2772E+00  0.2772E+00
      3.344  0.1268E-01  0.1268E-01  0.2786E+00  0.2786E+00
      3.448  0.8089E-02  0.8089E-02  0.2794E+00  0.2794E+00
      3.552  0.1010E-01  0.1010E-01  0.2804E+00  0.2804E+00
      3.655  0.1270E-01  0.1270E-01  0.2818E+00  0.2818E+00
      3.759  0.1037E-01  0.1037E-01  0.2828E+00  0.2828E+00
      3.862  0.1113E-01  0.1113E-01  0.2840E+00  0.2840E+00
      3.966  0.1739E-01  0.1739E-01  0.2858E+00  0.2858E+00
      4.070  0.1710E-01  0.1710E-01  0.2876E+00  0.2876E+00
      4.173  0.1192E-01  0.1193E-01  0.2888E+00  0.2888E+00
      4.277  0.1562E-01  0.1562E-01  0.2904E+00  0.2904E+00
      4.380  0.1802E-01  0.1802E-01  0.2923E+00  0.2923E+00
      4.484  0.1346E-01  0.1346E-01  0.2937E+00  0.2937E+00
      4.588  0.1318E-01  0.1318E-01  0.2950E+00  0.2950E+00
      4.691  0.1270E-01  0.1271E-01  0.2964E+00  0.2964E+00
      4.795  0.1645E-01  0.1646E-01  0.2981E+00  0.2981E+00
      4.898  0.1804E-01  0.1804E-01  0.2999E+00  0.2999E+00
      5.002  0.1966E-01  0.1966E-01  0.3020E+00  0.3020E+00
      5.105  0.1780E-01  0.1780E-01  0.3038E+00  0.3038E+00
      5.209  0.1638E-01  0.1637E-01  0.3055E+00  0.3055E+00
      5.313  0.1418E-01  0.1418E-01  0.3070E+00  0.3070E+00
      5.416  0.1857E-01  0.1858E-01  0.3089E+00  0.3089E+00
      5.520  0.2002E-01  0.2002E-01  0.3110E+00  0.3110E+00
      5.623  0.1487E-01  0.1487E-01  0.3125E+00  0.3125E+00
      5.727  0.1415E-01  0.1415E-01  0.3140E+00  0.3140E+00
      5.831  0.1760E-01  0.1760E-01  0.3158E+00  0.3158E+00
      5.934  0.2214E-01  0.2213E-01  0.3181E+00  0.3181E+00
      6.038  0.2414E-01  0.2414E-01  0.3206E+00  0.3206E+00
      6.141  0.2884E-01  0.2885E-01  0.3236E+00  0.3236E+00
      6.245  0.2715E-01  0.2715E-01  0.3264E+00  0.3264E+00
      6.349  0.2486E-01  0.2486E-01  0.3290E+00  0.3290E+00
      6.452  0.2123E-01  0.2122E-01  0.3312E+00  0.3312E+00
      6.556  0.1616E-01  0.1616E-01  0.3328E+00  0.3328E+00
      6.659  0.2528E-01  0.2529E-01  0.3355E+00  0.3355E+00
      6.763  0.3429E-01  0.3428E-01  0.3390E+00  0.3390E+00
      6.866  0.2926E-01  0.2925E-01  0.3420E+00  0.3420E+00
      6.970  0.2898E-01  0.2899E-01  0.3450E+00  0.3450E+00
      7.074  0.3322E-01  0.3322E-01  0.3485E+00  0.3485E+00
      7.177  0.3265E-01  0.3265E-01  0.3519E+00  0.3519E+00
      7.281  0.2718E-01  0.2718E-01  0.3547E+00  0.3547E+00
      7.384  0.3646E-01  0.3645E-01  0.3585E+00  0.3585E+00
      7.488  0.3674E-01  0.3674E-01  0.3623E+00  0.3623E+00
      7.592  0.2595E-01  0.2594E-01  0.3650E+00  0.3650E+00
      7.695  0.2642E-01  0.2643E-01  0.3677E+00  0.3677E+00
      7.799  0.2691E-01  0.2691E-01  0.3705E+00  0.3705E+00
      7.902  0.1941E-01  0.1940E-01  0.3725E+00  0.3725E+00
      8.006  0.1246E-01  0.1246E-01  0.3738E+00  0.3738E+00
      8.110  0.6228E-02  0.6225E-02  0.3744E+00  0.3744E+00
      8.213  0.1907E-02  0.1904E-02  0.3746E+00  0.3746E+00
      8.317  0.1401E-02  0.1402E-02  0.3748E+00  0.3748E+00
      8.420  0.1706E-02  0.1705E-02  0.3749E+00  0.3749E+00
      8.524  0.5259E-03  0.5243E-03  0.3750E+00  0.3750E+00
      8.627  0.2572E-04  0.2557E-04  0.3750E+00  0.3750E+00
      8.731  0.1758E-06  0.1743E-06  0.3750E+00  0.3750E+00
      8.835  0.1560E-09  0.1542E-09  0.3750E+00  0.3750E+00
      8.938  0.1726E-13  0.1701E-13  0.3750E+00  0.3750E+00
      9.042  0.0000E+00  0.0000E+00  0.3750E+00  0.3750E+00
      9.145  0.0000E+00  0.0000E+00  0.3750E+00  0.3750E+00
      9.249  0.0000E+00  0.0000E+00  0.3750E+00  0.3750E+00
      9.353  0.0000E+00  0.0000E+00  0.3750E+00  0.3750E+00
      9.456  0.0000E+00  0.0000E+00  0.3750E+00  0.3750E+00
      9.560  0.0000E+00  0.0000E+00  0.3750E+00  0.3750E+00
      9.663  0.0000E+00  0.0000E+00  0.3750E+00  0.3750E+00
      9.767  0.0000E+00  0.0000E+00  0.3750E+00  0.3750E+00
