Lattice                                 
           1
     4.364768    2.520000    0.000000
    -4.364768    2.520000    0.000000
     0.000000    0.000000   15.000000
   B    C 
     2    14
Direct configuration=     1
   0.33833034  0.66916432  0.10000000
   0.67165522  0.33584146  0.10000000
   0.16373946  0.31999962  0.10000000
   0.32250218  0.16126397  0.10000000
   0.16376430  0.84376384  0.10000000
   0.84623863  0.16123684  0.10000000
   0.68749850  0.84373000  0.10000000
   0.84626736  0.68499594  0.10000000
   0.33333267  0.16666633  0.32553333
   0.49999967  0.99999933  0.32553333
   0.33333267  0.66666633  0.32553333
   0.49999967  0.49999933  0.32553333
   0.83333267  0.16666633  0.32553333
   0.99999967  0.99999933  0.32553333
   0.83333267  0.66666633  0.32553333
   0.99999967  0.49999933  0.32553333
Direct configuration=     2
   0.33834433  0.66917094  0.10017188
   0.67169317  0.33582096  0.09997919
   0.16708045  0.32668659  0.09994347
   0.32891673  0.16446744  0.10001568
   0.16711094  0.84041201  0.09994347
   0.84300397  0.16445399  0.10001523
   0.68080988  0.84040518  0.09994318
   0.84302888  0.67857500  0.10001521
   0.33337704  0.16668743  0.32554311
   0.50012654  0.00027070  0.32558588
   0.33332896  0.66666344  0.32532634
   0.50012654  0.49985701  0.32558587
   0.83331973  0.16669149  0.32553961
   0.00000493  0.00000305  0.32553167
   0.83331976  0.66662613  0.32553963
   0.99973347  0.49986732  0.32558725
Direct configuration=     3
   0.33833411  0.66916610  0.10004629
   0.67166544  0.33583594  0.09999439
   0.16463922  0.32180048  0.09998478
   0.32422968  0.16212669  0.10000422
   0.16466558  0.84286116  0.09998478
   0.84536751  0.16210325  0.10000410
   0.68569720  0.84283460  0.09998470
   0.84539520  0.68326673  0.10000410
   0.33334462  0.16667201  0.32553597
   0.50003384  0.00007241  0.32554749
   0.33333167  0.66666556  0.32547759
   0.50003384  0.49996100  0.32554748
   0.83332918  0.16667311  0.32553502
   0.00000109  0.00000033  0.32553289
   0.83332919  0.66665551  0.32553503
   0.99992798  0.49996378  0.32554785
Direct configuration=     4
   0.33833411  0.66916610  0.10004627
   0.67166543  0.33583594  0.09999440
   0.16463875  0.32179954  0.09998478
   0.32422877  0.16212624  0.10000422
   0.16466511  0.84286164  0.09998478
   0.84536797  0.16210279  0.10000410
   0.68569814  0.84283507  0.09998470
   0.84539566  0.68326763  0.10000409
   0.33334461  0.16667201  0.32553596
   0.50003382  0.00007238  0.32554748
   0.33333167  0.66666556  0.32547762
   0.50003382  0.49996102  0.32554748
   0.83332918  0.16667310  0.32553502
   0.00000108  0.00000033  0.32553289
   0.83332919  0.66665551  0.32553503
   0.99992802  0.49996380  0.32554785
Direct configuration=     5
   0.33833842  0.66916639  0.10015619
   0.67166870  0.33583240  0.09997811
   0.16463653  0.32180183  0.09995774
   0.32421863  0.16211540  0.10000647
   0.16465480  0.84285264  0.09995774
   0.84538327  0.16210071  0.10000612
   0.68568826  0.84284012  0.09995733
   0.84539956  0.68328249  0.10000612
   0.33335707  0.16667839  0.32554877
   0.50004476  0.00009346  0.32557435
   0.33333091  0.66666530  0.32534803
   0.50004476  0.49995064  0.32557435
   0.83332355  0.16668015  0.32554554
   0.00000325  0.00000130  0.32552872
   0.83332354  0.66664310  0.32554554
   0.99990935  0.49995435  0.32557554
Direct configuration=     6
   0.33833968  0.66916647  0.10018838
   0.67166965  0.33583137  0.09997334
   0.16463588  0.32180250  0.09994982
   0.32421566  0.16211223  0.10000713
   0.16465178  0.84285001  0.09994982
   0.84538775  0.16210010  0.10000671
   0.68568536  0.84284160  0.09994932
   0.84540070  0.68328684  0.10000671
   0.33336071  0.16668026  0.32555252
   0.50004796  0.00009963  0.32558222
   0.33333069  0.66666523  0.32531009
   0.50004796  0.49994760  0.32558221
   0.83332190  0.16668221  0.32554862
   0.00000388  0.00000158  0.32552750
   0.83332189  0.66663946  0.32554862
   0.99990388  0.49995158  0.32558365
Direct configuration=     7
   0.33831640  0.66916340  0.10024961
   0.67167209  0.33583867  0.09997784
   0.16466468  0.32178263  0.09996384
   0.32422154  0.16211949  0.09998081
   0.16466102  0.84286909  0.09996385
   0.84535687  0.16210828  0.09998004
   0.68572879  0.84284970  0.09996295
   0.84535736  0.68325588  0.09998004
   0.33333722  0.16666804  0.32557783
   0.50002478  0.00005233  0.32556303
   0.33333594  0.66666741  0.32526851
   0.50002475  0.49997267  0.32556304
   0.83333743  0.16666844  0.32557300
   0.00000068  0.00000045  0.32552496
   0.83333746  0.66666791  0.32557298
   0.99994833  0.49997426  0.32556434
Direct configuration=     8
   0.33832148  0.66916407  0.10023624
   0.67167155  0.33583708  0.09997686
   0.16465839  0.32178696  0.09996078
   0.32422025  0.16211790  0.09998655
   0.16465900  0.84286493  0.09996078
   0.84536361  0.16210649  0.09998586
   0.68571931  0.84284793  0.09995998
   0.84536682  0.68326264  0.09998587
   0.33334235  0.16667071  0.32557231
   0.50002984  0.00006266  0.32556722
   0.33333480  0.66666693  0.32527759
   0.50002982  0.49996720  0.32556723
   0.83333404  0.16667145  0.32556768
   0.00000138  0.00000070  0.32552551
   0.83333406  0.66666170  0.32556767
   0.99993862  0.49996931  0.32556855
Direct configuration=     9
   0.33834931  0.66916926  0.10029110
   0.67164580  0.33582928  0.09997969
   0.16460004  0.32179300  0.09997884
   0.32424981  0.16210597  0.09996291
   0.16460408  0.84283244  0.09997888
   0.84542900  0.16212160  0.09996172
   0.68565817  0.84284717  0.09997757
   0.84543338  0.68328358  0.09996173
   0.33335253  0.16667638  0.32558955
   0.50004505  0.00008830  0.32554188
   0.33333236  0.66666637  0.32525413
   0.50004512  0.49995573  0.32554187
   0.83332746  0.16667785  0.32558439
   0.00000632  0.00000264  0.32553529
   0.83332749  0.66664988  0.32558439
   0.99991941  0.49995923  0.32554274
Direct configuration=    10
   0.33833130  0.66916590  0.10025560
   0.67166247  0.33583433  0.09997786
   0.16463780  0.32178909  0.09996715
   0.32423068  0.16211369  0.09997821
   0.16463962  0.84285346  0.09996717
   0.84538669  0.16211182  0.09997734
   0.68569773  0.84284766  0.09996618
   0.84539031  0.68327003  0.09997735
   0.33334594  0.16667271  0.32557839
   0.50003521  0.00007171  0.32555828
   0.33333394  0.66666673  0.32526931
   0.50003522  0.49996315  0.32555828
   0.83333172  0.16667371  0.32557357
   0.00000312  0.00000138  0.32552896
   0.83333174  0.66665753  0.32557357
   0.99993184  0.49996575  0.32555945
Direct configuration=    11
   0.33833195  0.66916603  0.10025688
   0.67166187  0.33583414  0.09997792
   0.16463644  0.32178924  0.09996757
   0.32423137  0.16211341  0.09997766
   0.16463834  0.84285271  0.09996759
   0.84538821  0.16211218  0.09997678
   0.68569631  0.84284765  0.09996659
   0.84539186  0.68327051  0.09997678
   0.33334618  0.16667284  0.32557879
   0.50003556  0.00007230  0.32555769
   0.33333388  0.66666672  0.32526876
   0.50003558  0.49996288  0.32555769
   0.83333157  0.16667386  0.32557396
   0.00000324  0.00000143  0.32552919
   0.83333158  0.66665725  0.32557396
   0.99993140  0.49996552  0.32555884
Direct configuration=    12
   0.33833059  0.66916505  0.10028034
   0.67167335  0.33583064  0.09997495
   0.16465503  0.32180520  0.09997504
   0.32420249  0.16210439  0.09997356
   0.16465688  0.84284635  0.09997505
   0.84538078  0.16209896  0.09997230
   0.68568914  0.84284439  0.09997370
   0.84537991  0.68328666  0.09997231
   0.33336329  0.16668165  0.32557691
   0.50005247  0.00010490  0.32554630
   0.33333262  0.66666629  0.32526486
   0.50005247  0.49994681  0.32554630
   0.83332361  0.16668369  0.32557214
   0.00000654  0.00000290  0.32554374
   0.83332359  0.66663991  0.32557214
   0.99990256  0.49995089  0.32554704
Direct configuration=    13
   0.33833123  0.66916551  0.10026928
   0.67166793  0.33583229  0.09997635
   0.16464626  0.32179767  0.09997151
   0.32421612  0.16210865  0.09997549
   0.16464813  0.84284935  0.09997153
   0.84538429  0.16210519  0.09997441
   0.68569252  0.84284592  0.09997035
   0.84538555  0.68327904  0.09997442
   0.33335522  0.16667750  0.32557780
   0.50004450  0.00008952  0.32555167
   0.33333322  0.66666649  0.32526670
   0.50004450  0.49995439  0.32555167
   0.83332736  0.16667905  0.32557300
   0.00000498  0.00000220  0.32553688
   0.83332736  0.66664809  0.32557300
   0.99991616  0.49995779  0.32555260
Direct configuration=    14
   0.33832947  0.66916408  0.10028017
   0.67166756  0.33583273  0.09997243
   0.16464555  0.32179317  0.09997404
   0.32421837  0.16210978  0.09997890
   0.16464515  0.84285089  0.09997403
   0.84538080  0.16210754  0.09997751
   0.68569772  0.84284806  0.09997265
   0.84538010  0.68327357  0.09997755
   0.33335437  0.16667688  0.32557112
   0.50004101  0.00008254  0.32554707
   0.33333540  0.66666739  0.32526611
   0.50004100  0.49995836  0.32554707
   0.83333069  0.16667823  0.32556646
   0.00000456  0.00000223  0.32554737
   0.83333068  0.66665183  0.32556645
   0.99992291  0.49996140  0.32554773
Direct configuration=    15
   0.33832868  0.66916344  0.10028509
   0.67166739  0.33583293  0.09997066
   0.16464523  0.32179114  0.09997518
   0.32421939  0.16211029  0.09998044
   0.16464380  0.84285159  0.09997516
   0.84537922  0.16210860  0.09997891
   0.68570007  0.84284902  0.09997368
   0.84537763  0.68327109  0.09997897
   0.33335398  0.16667660  0.32556809
   0.50003943  0.00007938  0.32554499
   0.33333639  0.66666779  0.32526584
   0.50003942  0.49996016  0.32554500
   0.83333220  0.16667785  0.32556350
   0.00000436  0.00000223  0.32555212
   0.83333218  0.66665353  0.32556350
   0.99992596  0.49996303  0.32554553
Direct configuration=    16
   0.33833126  0.66916507  0.10029273
   0.67165960  0.33583115  0.09996931
   0.16463695  0.32179299  0.09998029
   0.32422166  0.16210696  0.09998542
   0.16463684  0.84284575  0.09998026
   0.84538922  0.16210916  0.09998347
   0.68568678  0.84284617  0.09997844
   0.84538925  0.68327575  0.09998353
   0.33335264  0.16667648  0.32556235
   0.50004557  0.00008548  0.32553935
   0.33333483  0.66666761  0.32526352
   0.50004556  0.49995914  0.32553935
   0.83333061  0.16667772  0.32555781
   0.00000854  0.00000379  0.32555325
   0.83333062  0.66665323  0.32555781
   0.99992540  0.49996222  0.32553977
Direct configuration=    17
   0.33833063  0.66916466  0.10029085
   0.67166152  0.33583159  0.09996964
   0.16463899  0.32179254  0.09997903
   0.32422110  0.16210778  0.09998419
   0.16463855  0.84284719  0.09997900
   0.84538676  0.16210902  0.09998234
   0.68569005  0.84284688  0.09997727
   0.84538639  0.68327460  0.09998241
   0.33335297  0.16667651  0.32556376
   0.50004405  0.00008398  0.32554074
   0.33333521  0.66666765  0.32526409
   0.50004405  0.49995939  0.32554074
   0.83333100  0.16667775  0.32555921
   0.00000751  0.00000340  0.32555297
   0.83333101  0.66665330  0.32555921
   0.99992554  0.49996242  0.32554119
Direct configuration=    18
   0.33832907  0.66916460  0.10029413
   0.67166081  0.33583107  0.09996994
   0.16464093  0.32179391  0.09998247
   0.32421761  0.16210625  0.09998713
   0.16464039  0.84284645  0.09998244
   0.84538534  0.16210716  0.09998503
   0.68568839  0.84284559  0.09998047
   0.84538508  0.68327593  0.09998509
   0.33335410  0.16667717  0.32556103
   0.50004645  0.00008706  0.32553749
   0.33333555  0.66666792  0.32526212
   0.50004644  0.49995857  0.32553750
   0.83333103  0.16667845  0.32555648
   0.00000884  0.00000400  0.32555091
   0.83333104  0.66665283  0.32555649
   0.99992424  0.49996170  0.32553793
Direct configuration=    19
   0.33832439  0.66916443  0.10030395
   0.67165869  0.33582951  0.09997085
   0.16464674  0.32179803  0.09999279
   0.32420714  0.16210166  0.09999595
   0.16464588  0.84284422  0.09999276
   0.84538110  0.16210157  0.09999310
   0.68568341  0.84284172  0.09999010
   0.84538118  0.68327992  0.09999314
   0.33335750  0.16667915  0.32555282
   0.50005365  0.00009631  0.32552775
   0.33333658  0.66666874  0.32525622
   0.50005362  0.49995612  0.32552776
   0.83333112  0.16668055  0.32554830
   0.00001282  0.00000578  0.32554473
   0.83333115  0.66665142  0.32554830
   0.99992035  0.49995955  0.32552814
Direct configuration=    20
   0.33831504  0.66916407  0.10032361
   0.67165445  0.33582640  0.09997266
   0.16465837  0.32180627  0.10001342
   0.32418621  0.16209248  0.10001359
   0.16465688  0.84283976  0.10001340
   0.84537261  0.16209039  0.10000923
   0.68567345  0.84283399  0.10000936
   0.84537337  0.68328789  0.10000923
   0.33336430  0.16668310  0.32553641
   0.50006805  0.00011480  0.32550828
   0.33333862  0.66667036  0.32524441
   0.50006798  0.49995122  0.32550828
   0.83333131  0.16668474  0.32553192
   0.00002078  0.00000933  0.32553236
   0.83333137  0.66664860  0.32553193
   0.99991256  0.49995524  0.32550857
Direct configuration=    21
   0.33832198  0.66916433  0.10030902
   0.67165760  0.33582871  0.09997132
   0.16464974  0.32180015  0.09999810
   0.32420175  0.16209930  0.10000050
   0.16464872  0.84284307  0.09999808
   0.84537891  0.16209869  0.09999725
   0.68568084  0.84283973  0.09999506
   0.84537917  0.68328197  0.09999728
   0.33335926  0.16668017  0.32554859
   0.50005736  0.00010107  0.32552274
   0.33333710  0.66666915  0.32525318
   0.50005732  0.49995486  0.32552274
   0.83333117  0.16668163  0.32554408
   0.00001487  0.00000669  0.32554154
   0.83333121  0.66665069  0.32554409
   0.99991834  0.49995844  0.32552310
Direct configuration=    22
   0.33831961  0.66916424  0.10031401
   0.67165652  0.33582792  0.09997178
   0.16465269  0.32180225  0.10000334
   0.32419643  0.16209696  0.10000498
   0.16465151  0.84284194  0.10000332
   0.84537676  0.16209585  0.10000135
   0.68567831  0.84283777  0.09999995
   0.84537718  0.68328400  0.10000137
   0.33336098  0.16668117  0.32554442
   0.50006102  0.00010577  0.32551779
   0.33333762  0.66666957  0.32525018
   0.50006097  0.49995361  0.32551779
   0.83333122  0.16668270  0.32553992
   0.00001689  0.00000760  0.32553840
   0.83333126  0.66664997  0.32553993
   0.99991636  0.49995734  0.32551813
Direct configuration=    23
   0.33832073  0.66916429  0.10031165
   0.67165703  0.33582830  0.09997156
   0.16465129  0.32180126  0.10000086
   0.32419895  0.16209807  0.10000286
   0.16465019  0.84284247  0.10000084
   0.84537778  0.16209719  0.09999941
   0.68567951  0.84283870  0.09999764
   0.84537812  0.68328304  0.09999944
   0.33336017  0.16668070  0.32554640
   0.50005929  0.00010355  0.32552013
   0.33333738  0.66666937  0.32525159
   0.50005924  0.49995420  0.32552013
   0.83333120  0.16668219  0.32554188
   0.00001593  0.00000717  0.32553989
   0.83333124  0.66665031  0.32554189
   0.99991730  0.49995786  0.32552048
Direct configuration=    24
   0.33832031  0.66916397  0.10031324
   0.67165669  0.33582811  0.09997207
   0.16465069  0.32180082  0.10000268
   0.32419871  0.16209793  0.10000440
   0.16464952  0.84284232  0.10000266
   0.84537728  0.16209712  0.10000082
   0.68567935  0.84283862  0.09999933
   0.84537758  0.68328261  0.10000085
   0.33336089  0.16668102  0.32554499
   0.50005940  0.00010351  0.32551852
   0.33333804  0.66666966  0.32525031
   0.50005936  0.49995446  0.32551852
   0.83333183  0.16668252  0.32554047
   0.00001614  0.00000732  0.32553843
   0.83333187  0.66665055  0.32554048
   0.99991769  0.49995811  0.32551887
Direct configuration=    25
   0.33831904  0.66916300  0.10031803
   0.67165568  0.33582756  0.09997359
   0.16464887  0.32179951  0.10000813
   0.32419802  0.16209750  0.10000904
   0.16464749  0.84284187  0.10000811
   0.84537580  0.16209693  0.10000506
   0.68567888  0.84283840  0.10000441
   0.84537594  0.68328134  0.10000507
   0.33336306  0.16668200  0.32554076
   0.50005975  0.00010340  0.32551370
   0.33334001  0.66667054  0.32524647
   0.50005970  0.49995524  0.32551370
   0.83333374  0.16668350  0.32553624
   0.00001674  0.00000778  0.32553407
   0.83333377  0.66665124  0.32553625
   0.99991885  0.49995886  0.32551405
Direct configuration=    26
   0.33831650  0.66916107  0.10032760
   0.67165366  0.33582647  0.09997662
   0.16464524  0.32179690  0.10001903
   0.32419662  0.16209666  0.10001830
   0.16464345  0.84284096  0.10001902
   0.84537283  0.16209653  0.10001353
   0.68567792  0.84283795  0.10001457
   0.84537268  0.68327878  0.10001352
   0.33336740  0.16668395  0.32553231
   0.50006043  0.00010318  0.32550405
   0.33334396  0.66667228  0.32523878
   0.50006039  0.49995680  0.32550405
   0.83333755  0.16668546  0.32552777
   0.00001794  0.00000871  0.32552534
   0.83333757  0.66665262  0.32552779
   0.99992119  0.49996035  0.32550440
Direct configuration=    27
   0.33831142  0.66915721  0.10034674
   0.67164961  0.33582427  0.09998270
   0.16463797  0.32179167  0.10004082
   0.32419384  0.16209497  0.10003682
   0.16463536  0.84283914  0.10004082
   0.84536689  0.16209574  0.10003047
   0.68567602  0.84283705  0.10003489
   0.84536615  0.68327367  0.10003042
   0.33337608  0.16668784  0.32551540
   0.50006181  0.00010275  0.32548475
   0.33335186  0.66667578  0.32522340
   0.50006177  0.49995991  0.32548475
   0.83334518  0.16668939  0.32551083
   0.00002034  0.00001055  0.32550789
   0.83334516  0.66665539  0.32551086
   0.99992587  0.49996334  0.32548510
Direct configuration=    28
   0.33831312  0.66915667  0.10034696
   0.67164871  0.33582425  0.09998623
   0.16463179  0.32178794  0.10004088
   0.32419936  0.16209724  0.10003742
   0.16462973  0.84283929  0.10004087
   0.84536864  0.16209862  0.10003102
   0.68567649  0.84283857  0.10003487
   0.84536747  0.68327013  0.10003098
   0.33337318  0.16668658  0.32551462
   0.50006037  0.00009764  0.32548528
   0.33335135  0.66667570  0.32522083
   0.50006034  0.49996323  0.32548528
   0.83334561  0.16668798  0.32551003
   0.00002117  0.00001080  0.32550568
   0.83334559  0.66665759  0.32551006
   0.99993241  0.49996644  0.32548566
Direct configuration=    29
   0.33831702  0.66915543  0.10034745
   0.67164667  0.33582420  0.09999426
   0.16461772  0.32177944  0.10004100
   0.32421192  0.16210241  0.10003877
   0.16461690  0.84283964  0.10004099
   0.84537261  0.16210518  0.10003228
   0.68567755  0.84284204  0.10003484
   0.84537048  0.68326207  0.10003224
   0.33336657  0.16668371  0.32551286
   0.50005709  0.00008600  0.32548649
   0.33335020  0.66667552  0.32521497
   0.50005708  0.49997079  0.32548649
   0.83334660  0.16668479  0.32550821
   0.00002306  0.00001137  0.32550066
   0.83334656  0.66666258  0.32550823
   0.99994729  0.49997349  0.32548695
Direct configuration=    30
   0.33831574  0.66915481  0.10034748
   0.67164793  0.33582426  0.09999983
   0.16461908  0.32177874  0.10004083
   0.32421066  0.16210301  0.10003968
   0.16461822  0.84284078  0.10004083
   0.84536947  0.16210460  0.10003314
   0.68568000  0.84284228  0.10003458
   0.84536708  0.68326050  0.10003311
   0.33336574  0.16668331  0.32551191
   0.50005651  0.00008415  0.32548712
   0.33335060  0.66667573  0.32521154
   0.50005650  0.49997206  0.32548712
   0.83334742  0.16668435  0.32550724
   0.00002330  0.00001150  0.32549735
   0.83334739  0.66666388  0.32550726
   0.99994968  0.49997469  0.32548764
Direct configuration=    31
   0.33831229  0.66915315  0.10034756
   0.67165134  0.33582444  0.10001486
   0.16462274  0.32177684  0.10004039
   0.32420726  0.16210463  0.10004213
   0.16462178  0.84284383  0.10004039
   0.84536100  0.16210304  0.10003545
   0.68568659  0.84284293  0.10003388
   0.84535793  0.68325627  0.10003545
   0.33336350  0.16668224  0.32550936
   0.50005495  0.00007917  0.32548883
   0.33335169  0.66667630  0.32520233
   0.50005494  0.49997548  0.32548883
   0.83334965  0.16668317  0.32550463
   0.00002393  0.00001184  0.32548843
   0.83334962  0.66666739  0.32550463
   0.99995611  0.49997791  0.32548950
Direct configuration=    32
   0.33831147  0.66915409  0.10034753
   0.67164953  0.33582353  0.10002040
   0.16462580  0.32178148  0.10004033
   0.32420208  0.16210133  0.10004349
   0.16462502  0.84284193  0.10004034
   0.84536211  0.16209939  0.10003677
   0.68568128  0.84283988  0.10003374
   0.84536056  0.68326189  0.10003678
   0.33336869  0.16668456  0.32550863
   0.50005792  0.00008741  0.32548811
   0.33335323  0.66667682  0.32520052
   0.50005792  0.49997077  0.32548811
   0.83334968  0.16668576  0.32550390
   0.00002342  0.00001186  0.32548531
   0.83334967  0.66666435  0.32550389
   0.99994694  0.49997361  0.32548881
Direct configuration=    33
   0.33831061  0.66915509  0.10034750
   0.67164761  0.33582256  0.10002629
   0.16462905  0.32178639  0.10004027
   0.32419659  0.16209783  0.10004494
   0.16462846  0.84283991  0.10004029
   0.84536329  0.16209552  0.10003816
   0.68567565  0.84283665  0.10003358
   0.84536334  0.68326785  0.10003819
   0.33337418  0.16668703  0.32550786
   0.50006107  0.00009615  0.32548734
   0.33335486  0.66667737  0.32519861
   0.50006108  0.49996578  0.32548734
   0.83334971  0.16668850  0.32550312
   0.00002288  0.00001187  0.32548200
   0.83334973  0.66666112  0.32550311
   0.99993722  0.49996905  0.32548807
Direct configuration=    34
   0.33831116  0.66915528  0.10034762
   0.67164589  0.33582234  0.10002895
   0.16462574  0.32178526  0.10004067
   0.32419849  0.16209786  0.10004618
   0.16462565  0.84283921  0.10004070
   0.84536553  0.16209662  0.10003936
   0.68567377  0.84283655  0.10003393
   0.84536584  0.68326741  0.10003940
   0.33337447  0.16668734  0.32550723
   0.50006238  0.00009693  0.32548568
   0.33335427  0.66667725  0.32519901
   0.50006239  0.49996599  0.32548568
   0.83334884  0.16668882  0.32550250
   0.00002405  0.00001229  0.32548086
   0.83334886  0.66666026  0.32550249
   0.99993800  0.49996927  0.32548640
Direct configuration=    35
   0.33831187  0.66915553  0.10034777
   0.67164364  0.33582205  0.10003244
   0.16462141  0.32178379  0.10004120
   0.32420098  0.16209790  0.10004781
   0.16462197  0.84283828  0.10004124
   0.84536847  0.16209805  0.10004093
   0.68567130  0.84283641  0.10003439
   0.84536911  0.68326684  0.10004097
   0.33337485  0.16668774  0.32550641
   0.50006410  0.00009795  0.32548350
   0.33335349  0.66667708  0.32519954
   0.50006410  0.49996627  0.32548350
   0.83334771  0.16668925  0.32550170
   0.00002559  0.00001285  0.32547938
   0.83334772  0.66665912  0.32550169
   0.99993902  0.49996957  0.32548421
Direct configuration=    36
   0.33831116  0.66915520  0.10034794
   0.67164388  0.33582210  0.10003414
   0.16462157  0.32178312  0.10004168
   0.32420074  0.16209816  0.10004877
   0.16462206  0.84283870  0.10004172
   0.84536726  0.16209810  0.10004185
   0.68567231  0.84283658  0.10003482
   0.84536773  0.68326582  0.10004190
   0.33337463  0.16668768  0.32550574
   0.50006410  0.00009718  0.32548226
   0.33335357  0.66667716  0.32519977
   0.50006410  0.49996697  0.32548226
   0.83334793  0.16668915  0.32550104
   0.00002599  0.00001302  0.32547878
   0.83334793  0.66665951  0.32550103
   0.99994039  0.49997022  0.32548295
Direct configuration=    37
   0.33830901  0.66915423  0.10034844
   0.67164459  0.33582225  0.10003924
   0.16462203  0.32178112  0.10004311
   0.32420001  0.16209893  0.10005166
   0.16462232  0.84283998  0.10004316
   0.84536361  0.16209824  0.10004463
   0.68567536  0.84283709  0.10003612
   0.84536359  0.68326276  0.10004470
   0.33337400  0.16668749  0.32550374
   0.50006411  0.00009487  0.32547854
   0.33335381  0.66667739  0.32520047
   0.50006410  0.49996909  0.32547854
   0.83334858  0.16668886  0.32549907
   0.00002717  0.00001351  0.32547700
   0.83334857  0.66666068  0.32549906
   0.99994449  0.49997216  0.32547919
Direct configuration=    38
   0.33830471  0.66915229  0.10034945
   0.67164601  0.33582254  0.10004944
   0.16462295  0.32177711  0.10004598
   0.32419855  0.16210048  0.10005743
   0.16462283  0.84284254  0.10004605
   0.84535632  0.16209853  0.10005018
   0.68568144  0.84283812  0.10003872
   0.84535530  0.68325665  0.10005029
   0.33337273  0.16668712  0.32549974
   0.50006412  0.00009025  0.32547109
   0.33335428  0.66667786  0.32520185
   0.50006410  0.49997332  0.32547109
   0.83334990  0.16668827  0.32549513
   0.00002953  0.00001449  0.32547343
   0.83334986  0.66666303  0.32549513
   0.99995270  0.49997605  0.32547167
Direct configuration=    39
   0.33830658  0.66915313  0.10034901
   0.67164539  0.33582241  0.10004500
   0.16462255  0.32177885  0.10004473
   0.32419918  0.16209981  0.10005492
   0.16462261  0.84284143  0.10004479
   0.84535949  0.16209840  0.10004777
   0.68567880  0.84283767  0.10003759
   0.84535890  0.68325931  0.10004786
   0.33337328  0.16668728  0.32550148
   0.50006412  0.00009226  0.32547433
   0.33335408  0.66667766  0.32520125
   0.50006410  0.49997148  0.32547433
   0.83334933  0.16668853  0.32549684
   0.00002850  0.00001406  0.32547498
   0.83334930  0.66666201  0.32549684
   0.99994913  0.49997436  0.32547494
Direct configuration=    40
   0.33830636  0.66915276  0.10034972
   0.67164482  0.33582179  0.10004782
   0.16462230  0.32177966  0.10004624
   0.32419787  0.16209914  0.10005687
   0.16462231  0.84284070  0.10004631
   0.84535877  0.16209721  0.10004963
   0.68567740  0.84283699  0.10003901
   0.84535856  0.68326015  0.10004973
   0.33337439  0.16668762  0.32549938
   0.50006369  0.00009240  0.32547244
   0.33335589  0.66667836  0.32520042
   0.50006368  0.49997139  0.32547245
   0.83335141  0.16668883  0.32549476
   0.00002805  0.00001406  0.32547408
   0.83335139  0.66666336  0.32549476
   0.99994843  0.49997424  0.32547304
Direct configuration=    41
   0.33830570  0.66915163  0.10035186
   0.67164310  0.33581991  0.10005628
   0.16462155  0.32178209  0.10005076
   0.32419394  0.16209712  0.10006272
   0.16462142  0.84283854  0.10005085
   0.84535662  0.16209363  0.10005522
   0.68567322  0.84283496  0.10004325
   0.84535754  0.68326266  0.10005535
   0.33337771  0.16668863  0.32549310
   0.50006243  0.00009282  0.32546679
   0.33336134  0.66668045  0.32519794
   0.50006242  0.49997109  0.32546679
   0.83335766  0.16668975  0.32548851
   0.00002670  0.00001406  0.32547140
   0.83335765  0.66666742  0.32548851
   0.99994633  0.49997389  0.32546734
Direct configuration=    42
   0.33830438  0.66914938  0.10035612
   0.67163967  0.33581616  0.10007320
   0.16462004  0.32178695  0.10005980
   0.32418609  0.16209310  0.10007442
   0.16461964  0.84283420  0.10005993
   0.84535233  0.16208648  0.10006640
   0.68566486  0.84283089  0.10005175
   0.84535550  0.68326768  0.10006658
   0.33338434  0.16669066  0.32548053
   0.50005989  0.00009366  0.32545549
   0.33337223  0.66668464  0.32519296
   0.50005989  0.49997051  0.32545549
   0.83337017  0.16669158  0.32547601
   0.00002400  0.00001406  0.32546603
   0.83337017  0.66667553  0.32547603
   0.99994212  0.49997319  0.32545593
Direct configuration=    43
   0.33830516  0.66915071  0.10035359
   0.67164170  0.33581838  0.10006318
   0.16462093  0.32178407  0.10005444
   0.32419074  0.16209548  0.10006749
   0.16462070  0.84283677  0.10005455
   0.84535487  0.16209072  0.10005978
   0.68566981  0.84283330  0.10004672
   0.84535671  0.68326470  0.10005993
   0.33338041  0.16668946  0.32548797
   0.50006139  0.00009316  0.32546219
   0.33336578  0.66668216  0.32519591
   0.50006139  0.49997085  0.32546219
   0.83336276  0.16669050  0.32548342
   0.00002560  0.00001406  0.32546921
   0.83336276  0.66667072  0.32548342
   0.99994461  0.49997361  0.32546269
Direct configuration=    44
   0.33830487  0.66915067  0.10035489
   0.67164041  0.33581796  0.10006562
   0.16461913  0.32178340  0.10005645
   0.32419012  0.16209503  0.10006961
   0.16461941  0.84283597  0.10005656
   0.84535532  0.16209063  0.10006180
   0.68566777  0.84283257  0.10004863
   0.84535703  0.68326455  0.10006195
   0.33338083  0.16668988  0.32548550
   0.50006369  0.00009481  0.32546053
   0.33336551  0.66668224  0.32519382
   0.50006368  0.49997111  0.32546053
   0.83336221  0.16669095  0.32548094
   0.00002751  0.00001483  0.32546787
   0.83336221  0.66667016  0.32548095
   0.99994564  0.49997393  0.32546103
Direct configuration=    45
   0.33830399  0.66915054  0.10035876
   0.67163652  0.33581668  0.10007293
   0.16461370  0.32178136  0.10006245
   0.32418824  0.16209368  0.10007598
   0.16461553  0.84283355  0.10006258
   0.84535667  0.16209036  0.10006786
   0.68566162  0.84283037  0.10005435
   0.84535801  0.68326407  0.10006803
   0.33338208  0.16669115  0.32547808
   0.50007056  0.00009973  0.32545556
   0.33336471  0.66668248  0.32518757
   0.50007057  0.49997190  0.32545556
   0.83336057  0.16669232  0.32547353
   0.00003324  0.00001712  0.32546385
   0.83336057  0.66666846  0.32547354
   0.99994874  0.49997489  0.32545604
Direct configuration=    46
   0.33830224  0.66915029  0.10036651
   0.67162875  0.33581412  0.10008756
   0.16460285  0.32177729  0.10007446
   0.32418449  0.16209098  0.10008871
   0.16460779  0.84282872  0.10007463
   0.84535936  0.16208982  0.10007997
   0.68564932  0.84282598  0.10006580
   0.84535997  0.68326313  0.10008018
   0.33338459  0.16669369  0.32546324
   0.50008432  0.00010958  0.32544562
   0.33336310  0.66668296  0.32517506
   0.50008434  0.49997347  0.32544562
   0.83335727  0.16669504  0.32545870
   0.00004469  0.00002170  0.32545581
   0.83335730  0.66666507  0.32545872
   0.99995494  0.49997682  0.32544607
Direct configuration=    47
   0.33830306  0.66915040  0.10036291
   0.67163236  0.33581531  0.10008076
   0.16460790  0.32177919  0.10006887
   0.32418624  0.16209224  0.10008279
   0.16461139  0.84283097  0.10006903
   0.84535811  0.16209007  0.10007434
   0.68565504  0.84282803  0.10006047
   0.84535906  0.68326357  0.10007453
   0.33338343  0.16669251  0.32547014
   0.50007792  0.00010500  0.32545024
   0.33336385  0.66668274  0.32518088
   0.50007793  0.49997274  0.32545024
   0.83335880  0.16669377  0.32546560