   8   8   0   0
  0.4338553E+02  0.5169000E-09  0.5169000E-09  0.1500000E-08  0.5000000E-15
  1.000000000000000E-004
  CAR 
 BC3                                     
      9.52956985    -21.28556008  301     -3.47754872      1.00000000
    -21.286  0.0000E+00  0.0000E+00
    -21.183  0.0000E+00  0.0000E+00
    -21.080  0.0000E+00  0.0000E+00
    -20.977  0.0000E+00  0.0000E+00
    -20.875  0.0000E+00  0.0000E+00
    -20.772  0.0000E+00  0.0000E+00
    -20.669  0.0000E+00  0.0000E+00
    -20.567  0.0000E+00  0.0000E+00
    -20.464  0.1383E-18  0.1421E-19
    -20.361  0.1487E-13  0.1528E-14
    -20.258  0.1444E-09  0.1483E-10
    -20.156  0.1913E-06  0.1966E-07
    -20.053  0.3712E-04  0.3832E-05
    -19.950  0.1199E-02  0.1270E-03
    -19.848  0.8108E-02  0.9598E-03
    -19.745  0.1714E-01  0.2720E-02
    -19.642  0.2080E-01  0.4856E-02
    -19.539  0.2343E-01  0.7263E-02
    -19.437  0.2879E-01  0.1022E-01
    -19.334  0.3995E-01  0.1432E-01
    -19.231  0.3924E-01  0.1835E-01
    -19.129  0.1456E-01  0.1985E-01
    -19.026  0.1436E-02  0.2000E-01
    -18.923  0.2904E-04  0.2000E-01
    -18.820  0.9783E-07  0.2000E-01
    -18.718  0.4821E-10  0.2000E-01
    -18.615  0.3237E-14  0.2000E-01
    -18.512  0.0000E+00  0.2000E-01
    -18.409  0.0000E+00  0.2000E-01
    -18.307  0.0000E+00  0.2000E-01
    -18.204  0.0000E+00  0.2000E-01
    -18.101  0.8443E-14  0.2000E-01
    -17.999  0.9845E-10  0.2000E-01
    -17.896  0.1560E-06  0.2000E-01
    -17.793  0.3594E-04  0.2000E-01
    -17.690  0.1361E-02  0.2014E-01
    -17.588  0.1059E-01  0.2123E-01
    -17.485  0.2528E-01  0.2383E-01
    -17.382  0.3226E-01  0.2714E-01
    -17.280  0.2729E-01  0.2995E-01
    -17.177  0.1970E-01  0.3197E-01
    -17.074  0.1845E-01  0.3386E-01
    -16.971  0.1911E-01  0.3583E-01
    -16.869  0.2012E-01  0.3789E-01
    -16.766  0.2147E-01  0.4010E-01
    -16.663  0.2360E-01  0.4252E-01
    -16.561  0.2778E-01  0.4538E-01
    -16.458  0.3445E-01  0.4891E-01
    -16.355  0.3394E-01  0.5240E-01
    -16.252  0.2598E-01  0.5507E-01
    -16.150  0.2054E-01  0.5718E-01
    -16.047  0.1643E-01  0.5887E-01
    -15.944  0.9083E-02  0.5980E-01
    -15.842  0.1855E-02  0.5999E-01
    -15.739  0.8728E-04  0.6000E-01
    -15.636  0.7208E-06  0.6000E-01
    -15.533  0.9011E-09  0.6000E-01
    -15.431  0.1575E-12  0.6000E-01
    -15.328  0.3390E-17  0.6000E-01
    -15.225  0.0000E+00  0.6000E-01
    -15.123  0.0000E+00  0.6000E-01
    -15.020  0.0000E+00  0.6000E-01
    -14.917  0.0000E+00  0.6000E-01
    -14.814  0.0000E+00  0.6000E-01
    -14.712  0.1169E-15  0.6000E-01
    -14.609  0.2770E-11  0.6000E-01
    -14.506  0.8885E-08  0.6000E-01
    -14.404  0.4107E-05  0.6000E-01
    -14.301  0.3019E-03  0.6003E-01
    -14.198  0.4139E-02  0.6046E-01
    -14.095  0.1427E-01  0.6192E-01
    -13.993  0.2105E-01  0.6408E-01
    -13.890  0.2433E-01  0.6658E-01
    -13.787  0.2988E-01  0.6965E-01
    -13.684  0.3549E-01  0.7330E-01
    -13.582  0.2726E-01  0.7610E-01
    -13.479  0.1870E-01  0.7802E-01
    -13.376  0.1532E-01  0.7959E-01
    -13.274  0.1465E-01  0.8110E-01
    -13.171  0.1378E-01  0.8251E-01
    -13.068  0.1319E-01  0.8387E-01
    -12.965  0.1299E-01  0.8520E-01
    -12.863  0.1242E-01  0.8648E-01
    -12.760  0.1476E-01  0.8799E-01
    -12.657  0.1819E-01  0.8986E-01
    -12.555  0.2035E-01  0.9195E-01
    -12.452  0.1848E-01  0.9385E-01
    -12.349  0.1775E-01  0.9567E-01
    -12.246  0.1581E-01  0.9730E-01
    -12.144  0.1542E-01  0.9888E-01
    -12.041  0.1390E-01  0.1003E+00
    -11.938  0.1353E-01  0.1017E+00
    -11.836  0.9707E-02  0.1027E+00
    -11.733  0.5989E-02  0.1033E+00
    -11.630  0.4896E-02  0.1038E+00
    -11.527  0.3663E-02  0.1042E+00
    -11.425  0.5744E-02  0.1048E+00
    -11.322  0.4641E-02  0.1053E+00
    -11.219  0.5379E-02  0.1058E+00
    -11.117  0.9432E-02  0.1068E+00
    -11.014  0.7682E-02  0.1076E+00
    -10.911  0.9132E-02  0.1085E+00
    -10.808  0.1500E-01  0.1100E+00
    -10.706  0.1396E-01  0.1115E+00
    -10.603  0.1592E-01  0.1131E+00
    -10.500  0.1968E-01  0.1151E+00
    -10.398  0.1792E-01  0.1170E+00
    -10.295  0.2254E-01  0.1193E+00
    -10.192  0.2303E-01  0.1217E+00
    -10.089  0.1679E-01  0.1234E+00
     -9.987  0.1294E-01  0.1247E+00
     -9.884  0.1606E-01  0.1264E+00
     -9.781  0.2780E-01  0.1292E+00
     -9.679  0.2564E-01  0.1319E+00
     -9.576  0.2230E-01  0.1341E+00
     -9.473  0.2112E-01  0.1363E+00
     -9.370  0.1913E-01  0.1383E+00
     -9.268  0.1715E-01  0.1400E+00
     -9.165  0.2122E-01  0.1422E+00
     -9.062  0.2136E-01  0.1444E+00
     -8.960  0.2397E-01  0.1469E+00
     -8.857  0.2674E-01  0.1496E+00
     -8.754  0.2456E-01  0.1521E+00
     -8.651  0.2679E-01  0.1549E+00
     -8.549  0.2956E-01  0.1579E+00
     -8.446  0.2859E-01  0.1609E+00
     -8.343  0.2313E-01  0.1632E+00
     -8.240  0.2053E-01  0.1654E+00
     -8.138  0.2012E-01  0.1674E+00
     -8.035  0.2461E-01  0.1699E+00
     -7.932  0.3165E-01  0.1732E+00
     -7.830  0.4004E-01  0.1773E+00
     -7.727  0.4386E-01  0.1818E+00
     -7.624  0.4373E-01  0.1863E+00
     -7.521  0.3860E-01  0.1903E+00
     -7.419  0.2608E-01  0.1930E+00
     -7.316  0.1727E-01  0.1947E+00
     -7.213  0.1997E-01  0.1968E+00
     -7.111  0.2104E-01  0.1989E+00
     -7.008  0.1734E-01  0.2007E+00
     -6.905  0.1629E-01  0.2024E+00
     -6.802  0.1628E-01  0.2041E+00
     -6.700  0.1834E-01  0.2059E+00
     -6.597  0.2724E-01  0.2087E+00
     -6.494  0.4179E-01  0.2130E+00
     -6.392  0.6835E-01  0.2201E+00
     -6.289  0.7928E-01  0.2282E+00
     -6.186  0.5801E-01  0.2342E+00
     -6.083  0.3957E-01  0.2382E+00
     -5.981  0.2666E-01  0.2410E+00
     -5.878  0.2371E-01  0.2434E+00
     -5.775  0.2324E-01  0.2458E+00
     -5.673  0.2462E-01  0.2483E+00
     -5.570  0.2520E-01  0.2509E+00
     -5.467  0.2642E-01  0.2536E+00
     -5.364  0.2778E-01  0.2565E+00
     -5.262  0.3010E-01  0.2596E+00
     -5.159  0.3178E-01  0.2628E+00
     -5.056  0.3816E-01  0.2667E+00
     -4.954  0.4077E-01  0.2709E+00
     -4.851  0.4425E-01  0.2755E+00
     -4.748  0.4691E-01  0.2803E+00
     -4.645  0.4635E-01  0.2851E+00
     -4.543  0.3957E-01  0.2891E+00
     -4.440  0.2778E-01  0.2920E+00
     -4.337  0.1633E-01  0.2937E+00
     -4.235  0.1247E-01  0.2949E+00
     -4.132  0.1220E-01  0.2962E+00
     -4.029  0.1158E-01  0.2974E+00
     -3.926  0.1119E-01  0.2985E+00
     -3.824  0.9424E-02  0.2995E+00
     -3.721  0.4313E-02  0.2999E+00
     -3.618  0.5938E-03  0.3000E+00
     -3.516  0.1678E-04  0.3000E+00
     -3.413  0.4603E-06  0.3000E+00
     -3.310  0.5140E-04  0.3000E+00
     -3.207  0.1259E-02  0.3001E+00
     -3.105  0.7087E-02  0.3009E+00
     -3.002  0.1314E-01  0.3022E+00
     -2.899  0.1642E-01  0.3039E+00
     -2.796  0.1783E-01  0.3057E+00
     -2.694  0.2387E-01  0.3082E+00
     -2.591  0.2630E-01  0.3109E+00
     -2.488  0.2289E-01  0.3132E+00
     -2.386  0.1621E-01  0.3149E+00
     -2.283  0.1187E-01  0.3161E+00
     -2.180  0.1090E-01  0.3172E+00
     -2.077  0.7683E-02  0.3180E+00
     -1.975  0.6688E-02  0.3187E+00
     -1.872  0.4521E-02  0.3192E+00
     -1.769  0.2688E-02  0.3195E+00
     -1.667  0.2597E-02  0.3197E+00
     -1.564  0.1309E-02  0.3199E+00
     -1.461  0.1043E-02  0.3200E+00
     -1.358  0.3747E-03  0.3200E+00
     -1.256  0.5408E-03  0.3201E+00
     -1.153  0.1116E-02  0.3202E+00
     -1.050  0.1589E-02  0.3203E+00
     -0.948  0.2837E-02  0.3206E+00
     -0.845  0.2696E-02  0.3209E+00
     -0.742  0.4565E-02  0.3214E+00
     -0.639  0.4884E-02  0.3219E+00
     -0.537  0.5558E-02  0.3224E+00
     -0.434  0.8633E-02  0.3233E+00
     -0.331  0.8213E-02  0.3242E+00
     -0.229  0.1641E-01  0.3259E+00
     -0.126  0.2780E-01  0.3287E+00
     -0.023  0.2822E-01  0.3316E+00
      0.080  0.2331E-01  0.3340E+00
      0.182  0.1584E-01  0.3356E+00
      0.285  0.1482E-01  0.3372E+00
      0.388  0.1430E-01  0.3386E+00
      0.490  0.1342E-01  0.3400E+00
      0.593  0.1604E-01  0.3417E+00
      0.696  0.1317E-01  0.3430E+00
      0.799  0.1122E-01  0.3442E+00
      0.901  0.1427E-01  0.3456E+00
      1.004  0.1732E-01  0.3474E+00
      1.107  0.1887E-01  0.3493E+00
      1.209  0.1956E-01  0.3514E+00
      1.312  0.1985E-01  0.3534E+00
      1.415  0.2157E-01  0.3556E+00
      1.518  0.2205E-01  0.3579E+00
      1.620  0.2483E-01  0.3604E+00
      1.723  0.2394E-01  0.3629E+00
      1.826  0.2325E-01  0.3653E+00
      1.929  0.2798E-01  0.3681E+00
      2.031  0.3118E-01  0.3713E+00
      2.134  0.2858E-01  0.3743E+00
      2.237  0.3213E-01  0.3776E+00
      2.339  0.3764E-01  0.3815E+00
      2.442  0.3817E-01  0.3854E+00
      2.545  0.3723E-01  0.3892E+00
      2.648  0.4088E-01  0.3934E+00
      2.750  0.3784E-01  0.3973E+00
      2.853  0.3688E-01  0.4011E+00
      2.956  0.4004E-01  0.4052E+00
      3.058  0.3747E-01  0.4090E+00
      3.161  0.3772E-01  0.4129E+00
      3.264  0.3868E-01  0.4169E+00
      3.367  0.3702E-01  0.4207E+00
      3.469  0.3905E-01  0.4247E+00
      3.572  0.3763E-01  0.4286E+00
      3.675  0.3673E-01  0.4323E+00
      3.777  0.3920E-01  0.4364E+00
      3.880  0.3943E-01  0.4404E+00
      3.983  0.3826E-01  0.4443E+00
      4.086  0.4112E-01  0.4486E+00
      4.188  0.3230E-01  0.4519E+00
      4.291  0.3165E-01  0.4551E+00
      4.394  0.4412E-01  0.4597E+00
      4.496  0.4957E-01  0.4648E+00
      4.599  0.4751E-01  0.4696E+00
      4.702  0.4746E-01  0.4745E+00
      4.805  0.4978E-01  0.4796E+00
      4.907  0.5632E-01  0.4854E+00
      5.010  0.5735E-01  0.4913E+00
      5.113  0.6018E-01  0.4975E+00
      5.215  0.6882E-01  0.5046E+00
      5.318  0.7061E-01  0.5118E+00
      5.421  0.7254E-01  0.5193E+00
      5.524  0.8335E-01  0.5278E+00
      5.626  0.7552E-01  0.5356E+00
      5.729  0.5932E-01  0.5417E+00
      5.832  0.6507E-01  0.5484E+00
      5.934  0.8062E-01  0.5566E+00
      6.037  0.7998E-01  0.5648E+00
      6.140  0.6911E-01  0.5719E+00
      6.243  0.6806E-01  0.5789E+00
      6.345  0.7376E-01  0.5865E+00
      6.448  0.7430E-01  0.5941E+00
      6.551  0.6962E-01  0.6013E+00
      6.653  0.6198E-01  0.6077E+00
      6.756  0.6140E-01  0.6140E+00
      6.859  0.7275E-01  0.6214E+00
      6.962  0.6239E-01  0.6278E+00
      7.064  0.4291E-01  0.6323E+00
      7.167  0.2651E-01  0.6350E+00
      7.270  0.1447E-01  0.6365E+00
      7.373  0.1068E-01  0.6376E+00
      7.475  0.6447E-02  0.6382E+00
      7.578  0.4989E-02  0.6387E+00
      7.681  0.4536E-02  0.6392E+00
      7.783  0.1917E-02  0.6394E+00
      7.886  0.2189E-02  0.6396E+00
      7.989  0.1330E-02  0.6398E+00
      8.092  0.1226E-02  0.6399E+00
      8.194  0.9421E-03  0.6400E+00
      8.297  0.1504E-03  0.6400E+00
      8.400  0.4585E-05  0.6400E+00
      8.502  0.2507E-07  0.6400E+00
      8.605  0.2170E-10  0.6400E+00
      8.708  0.2638E-14  0.6400E+00
      8.811  0.3459E-19  0.6400E+00
      8.913  0.0000E+00  0.6400E+00
      9.016  0.0000E+00  0.6400E+00
      9.119  0.0000E+00  0.6400E+00
      9.221  0.0000E+00  0.6400E+00
      9.324  0.0000E+00  0.6400E+00
      9.427  0.0000E+00  0.6400E+00
      9.530  0.0000E+00  0.6400E+00
