  15  15   0   4
  0.2037108E+02  0.4850000E-09  0.4850000E-09  0.1500000E-08  0.5000000E-15
  1.000000000000000E-004
  CAR 
 Lattice                                 
     10.32268444    -21.68383995  301     -0.33162594      1.00000000
    -21.684  0.0000E+00  0.0000E+00  0.0000E+00  0.0000E+00
    -21.577  0.0000E+00  0.0000E+00  0.0000E+00  0.0000E+00
    -21.470  0.0000E+00  0.0000E+00  0.0000E+00  0.0000E+00
    -21.364  0.0000E+00  0.0000E+00  0.0000E+00  0.0000E+00
    -21.257  0.0000E+00  0.0000E+00  0.0000E+00  0.0000E+00
    -21.150  0.0000E+00  0.0000E+00  0.0000E+00  0.0000E+00
    -21.044  0.0000E+00  0.0000E+00  0.0000E+00  0.0000E+00
    -20.937  0.0000E+00  0.0000E+00  0.0000E+00  0.0000E+00
    -20.830  0.0000E+00  0.0000E+00  0.0000E+00  0.0000E+00
    -20.724  0.7203E-15  0.7203E-15  0.7685E-16  0.7685E-16
    -20.617  0.1220E-10  0.1220E-10  0.1302E-11  0.1302E-11
    -20.510  0.2493E-07  0.2493E-07  0.2661E-08  0.2661E-08
    -20.404  0.6754E-05  0.6754E-05  0.7232E-06  0.7232E-06
    -20.297  0.2710E-03  0.2710E-03  0.2964E-04  0.2964E-04
    -20.190  0.1974E-02  0.1974E-02  0.2403E-03  0.2403E-03
    -20.084  0.4153E-02  0.4153E-02  0.6834E-03  0.6834E-03
    -19.977  0.4524E-02  0.4524E-02  0.1166E-02  0.1166E-02
    -19.870  0.4938E-02  0.4938E-02  0.1693E-02  0.1693E-02
    -19.763  0.4159E-02  0.4159E-02  0.2137E-02  0.2137E-02
    -19.657  0.5386E-02  0.5386E-02  0.2711E-02  0.2711E-02
    -19.550  0.4215E-02  0.4215E-02  0.3161E-02  0.3161E-02
    -19.443  0.4264E-02  0.4264E-02  0.3616E-02  0.3616E-02
    -19.337  0.6009E-02  0.6009E-02  0.4257E-02  0.4257E-02
    -19.230  0.3807E-02  0.3807E-02  0.4663E-02  0.4663E-02
    -19.123  0.3894E-02  0.3894E-02  0.5079E-02  0.5079E-02
    -19.017  0.6120E-02  0.6120E-02  0.5731E-02  0.5731E-02
    -18.910  0.5201E-02  0.5201E-02  0.6286E-02  0.6286E-02
    -18.803  0.2954E-02  0.2954E-02  0.6602E-02  0.6602E-02
    -18.697  0.4402E-02  0.4402E-02  0.7071E-02  0.7071E-02
    -18.590  0.6911E-02  0.6911E-02  0.7809E-02  0.7809E-02
    -18.483  0.4554E-02  0.4554E-02  0.8294E-02  0.8294E-02
    -18.376  0.3790E-02  0.3790E-02  0.8699E-02  0.8699E-02
    -18.270  0.2993E-02  0.2993E-02  0.9018E-02  0.9018E-02
    -18.163  0.6661E-02  0.6661E-02  0.9729E-02  0.9729E-02
    -18.056  0.6584E-02  0.6584E-02  0.1043E-01  0.1043E-01
    -17.950  0.3514E-02  0.3514E-02  0.1081E-01  0.1081E-01
    -17.843  0.3306E-02  0.3306E-02  0.1116E-01  0.1116E-01
    -17.736  0.4113E-02  0.4113E-02  0.1160E-01  0.1160E-01
    -17.630  0.6251E-02  0.6251E-02  0.1226E-01  0.1226E-01
    -17.523  0.6751E-02  0.6751E-02  0.1298E-01  0.1298E-01
    -17.416  0.5587E-02  0.5587E-02  0.1358E-01  0.1358E-01
    -17.310  0.6588E-02  0.6588E-02  0.1428E-01  0.1428E-01
    -17.203  0.1030E-01  0.1030E-01  0.1538E-01  0.1538E-01
    -17.096  0.1465E-01  0.1465E-01  0.1695E-01  0.1695E-01
    -16.990  0.1566E-01  0.1566E-01  0.1862E-01  0.1862E-01
    -16.883  0.1720E-01  0.1720E-01  0.2045E-01  0.2045E-01
    -16.776  0.2089E-01  0.2089E-01  0.2268E-01  0.2268E-01
    -16.669  0.1603E-01  0.1603E-01  0.2439E-01  0.2439E-01
    -16.563  0.4923E-02  0.4923E-02  0.2492E-01  0.2492E-01
    -16.456  0.7360E-02  0.7360E-02  0.2570E-01  0.2570E-01
    -16.349  0.8075E-02  0.8075E-02  0.2656E-01  0.2656E-01
    -16.243  0.4550E-02  0.4550E-02  0.2705E-01  0.2705E-01
    -16.136  0.4137E-02  0.4137E-02  0.2749E-01  0.2749E-01
    -16.029  0.3889E-02  0.3889E-02  0.2791E-01  0.2791E-01
    -15.923  0.3776E-02  0.3776E-02  0.2831E-01  0.2831E-01
    -15.816  0.3736E-02  0.3736E-02  0.2871E-01  0.2871E-01
    -15.709  0.8173E-02  0.8173E-02  0.2958E-01  0.2958E-01
    -15.603  0.7972E-02  0.7972E-02  0.3043E-01  0.3043E-01
    -15.496  0.3898E-02  0.3898E-02  0.3085E-01  0.3085E-01
    -15.389  0.3865E-02  0.3865E-02  0.3126E-01  0.3126E-01
    -15.283  0.3394E-02  0.3394E-02  0.3162E-01  0.3162E-01
    -15.176  0.4667E-02  0.4667E-02  0.3212E-01  0.3212E-01
    -15.069  0.6254E-02  0.6254E-02  0.3279E-01  0.3279E-01
    -14.962  0.1094E-01  0.1094E-01  0.3395E-01  0.3395E-01
    -14.856  0.1700E-01  0.1700E-01  0.3577E-01  0.3577E-01
    -14.749  0.1836E-01  0.1836E-01  0.3773E-01  0.3773E-01
    -14.642  0.1726E-01  0.1726E-01  0.3957E-01  0.3957E-01
    -14.536  0.1082E-01  0.1082E-01  0.4072E-01  0.4072E-01
    -14.429  0.7819E-02  0.7819E-02  0.4156E-01  0.4156E-01
    -14.322  0.1513E-01  0.1513E-01  0.4317E-01  0.4317E-01
    -14.216  0.1527E-01  0.1527E-01  0.4480E-01  0.4480E-01
    -14.109  0.1104E-01  0.1104E-01  0.4598E-01  0.4598E-01
    -14.002  0.1074E-01  0.1074E-01  0.4712E-01  0.4712E-01
    -13.896  0.1267E-01  0.1267E-01  0.4847E-01  0.4847E-01
    -13.789  0.1985E-01  0.1985E-01  0.5059E-01  0.5059E-01
    -13.682  0.1977E-01  0.1977E-01  0.5270E-01  0.5270E-01
    -13.576  0.1793E-01  0.1793E-01  0.5461E-01  0.5461E-01
    -13.469  0.1075E-01  0.1075E-01  0.5576E-01  0.5576E-01
    -13.362  0.6643E-02  0.6643E-02  0.5647E-01  0.5647E-01
    -13.255  0.3290E-02  0.3290E-02  0.5682E-01  0.5682E-01
    -13.149  0.4116E-02  0.4116E-02  0.5726E-01  0.5726E-01
    -13.042  0.6922E-02  0.6922E-02  0.5800E-01  0.5800E-01
    -12.935  0.6835E-02  0.6835E-02  0.5873E-01  0.5873E-01
    -12.829  0.4836E-02  0.4836E-02  0.5924E-01  0.5924E-01
    -12.722  0.6856E-02  0.6856E-02  0.5997E-01  0.5997E-01
    -12.615  0.7026E-02  0.7026E-02  0.6072E-01  0.6072E-01
    -12.509  0.5557E-02  0.5557E-02  0.6132E-01  0.6132E-01
    -12.402  0.5361E-02  0.5361E-02  0.6189E-01  0.6189E-01
    -12.295  0.3308E-02  0.3308E-02  0.6224E-01  0.6224E-01
    -12.189  0.6515E-02  0.6515E-02  0.6294E-01  0.6294E-01
    -12.082  0.7957E-02  0.7957E-02  0.6379E-01  0.6379E-01
    -11.975  0.3265E-02  0.3265E-02  0.6413E-01  0.6413E-01
    -11.869  0.3385E-02  0.3385E-02  0.6450E-01  0.6450E-01
    -11.762  0.3410E-02  0.3410E-02  0.6486E-01  0.6486E-01
    -11.655  0.6122E-02  0.6122E-02  0.6551E-01  0.6551E-01
    -11.548  0.6664E-02  0.6664E-02  0.6622E-01  0.6622E-01
    -11.442  0.3692E-02  0.3691E-02  0.6662E-01  0.6662E-01
    -11.335  0.1910E-02  0.1910E-02  0.6682E-01  0.6682E-01
    -11.228  0.4780E-02  0.4780E-02  0.6733E-01  0.6733E-01
    -11.122  0.5812E-02  0.5812E-02  0.6795E-01  0.6795E-01
    -11.015  0.5100E-02  0.5100E-02  0.6849E-01  0.6849E-01
    -10.908  0.7765E-02  0.7765E-02  0.6932E-01  0.6932E-01
    -10.802  0.6000E-02  0.6000E-02  0.6996E-01  0.6996E-01
    -10.695  0.2495E-02  0.2495E-02  0.7023E-01  0.7023E-01
    -10.588  0.8110E-02  0.8110E-02  0.7109E-01  0.7109E-01
    -10.482  0.1288E-01  0.1288E-01  0.7247E-01  0.7247E-01
    -10.375  0.1536E-01  0.1536E-01  0.7411E-01  0.7411E-01
    -10.268  0.1471E-01  0.1471E-01  0.7568E-01  0.7568E-01
    -10.161  0.1463E-01  0.1463E-01  0.7724E-01  0.7724E-01
    -10.055  0.1822E-01  0.1822E-01  0.7918E-01  0.7918E-01
     -9.948  0.1849E-01  0.1849E-01  0.8115E-01  0.8115E-01
     -9.841  0.9579E-02  0.9579E-02  0.8217E-01  0.8217E-01
     -9.735  0.7024E-02  0.7024E-02  0.8292E-01  0.8292E-01
     -9.628  0.1429E-01  0.1429E-01  0.8445E-01  0.8445E-01
     -9.521  0.1536E-01  0.1536E-01  0.8609E-01  0.8609E-01
     -9.415  0.1640E-01  0.1640E-01  0.8784E-01  0.8784E-01
     -9.308  0.1556E-01  0.1556E-01  0.8950E-01  0.8950E-01
     -9.201  0.1402E-01  0.1402E-01  0.9099E-01  0.9099E-01
     -9.095  0.1042E-01  0.1042E-01  0.9211E-01  0.9211E-01
     -8.988  0.7815E-02  0.7815E-02  0.9294E-01  0.9294E-01
     -8.881  0.1576E-01  0.1576E-01  0.9462E-01  0.9462E-01
     -8.775  0.2045E-01  0.2045E-01  0.9680E-01  0.9680E-01
     -8.668  0.1496E-01  0.1496E-01  0.9840E-01  0.9840E-01
     -8.561  0.7602E-02  0.7602E-02  0.9921E-01  0.9921E-01
     -8.454  0.1121E-01  0.1121E-01  0.1004E+00  0.1004E+00
     -8.348  0.2090E-01  0.2090E-01  0.1026E+00  0.1026E+00
     -8.241  0.1812E-01  0.1812E-01  0.1046E+00  0.1046E+00
     -8.134  0.1175E-01  0.1175E-01  0.1058E+00  0.1058E+00
     -8.028  0.1662E-01  0.1662E-01  0.1076E+00  0.1076E+00
     -7.921  0.2510E-01  0.2510E-01  0.1103E+00  0.1103E+00
     -7.814  0.2457E-01  0.2457E-01  0.1129E+00  0.1129E+00
     -7.708  0.1969E-01  0.1969E-01  0.1150E+00  0.1150E+00
     -7.601  0.9940E-02  0.9940E-02  0.1161E+00  0.1161E+00
     -7.494  0.8543E-02  0.8543E-02  0.1170E+00  0.1170E+00
     -7.388  0.1885E-01  0.1885E-01  0.1190E+00  0.1190E+00
     -7.281  0.1793E-01  0.1793E-01  0.1209E+00  0.1209E+00
     -7.174  0.1167E-01  0.1167E-01  0.1221E+00  0.1221E+00
     -7.068  0.1109E-01  0.1109E-01  0.1233E+00  0.1233E+00
     -6.961  0.1704E-01  0.1704E-01  0.1251E+00  0.1251E+00
     -6.854  0.1819E-01  0.1819E-01  0.1271E+00  0.1271E+00
     -6.747  0.2011E-01  0.2011E-01  0.1292E+00  0.1292E+00
     -6.641  0.2060E-01  0.2060E-01  0.1314E+00  0.1314E+00
     -6.534  0.1828E-01  0.1828E-01  0.1334E+00  0.1334E+00
     -6.427  0.2040E-01  0.2040E-01  0.1355E+00  0.1355E+00
     -6.321  0.1711E-01  0.1711E-01  0.1374E+00  0.1374E+00
     -6.214  0.1882E-01  0.1882E-01  0.1394E+00  0.1394E+00
     -6.107  0.2622E-01  0.2622E-01  0.1422E+00  0.1422E+00
     -6.001  0.2268E-01  0.2268E-01  0.1446E+00  0.1446E+00
     -5.894  0.3156E-01  0.3156E-01  0.1480E+00  0.1480E+00
     -5.787  0.2854E-01  0.2854E-01  0.1510E+00  0.1510E+00
     -5.681  0.1605E-01  0.1605E-01  0.1527E+00  0.1527E+00
     -5.574  0.1848E-01  0.1848E-01  0.1547E+00  0.1547E+00
     -5.467  0.3325E-01  0.3325E-01  0.1582E+00  0.1582E+00
     -5.361  0.3619E-01  0.3619E-01  0.1621E+00  0.1621E+00
     -5.254  0.2290E-01  0.2290E-01  0.1645E+00  0.1645E+00
     -5.147  0.1648E-01  0.1648E-01  0.1663E+00  0.1663E+00
     -5.040  0.1055E-01  0.1055E-01  0.1674E+00  0.1674E+00
     -4.934  0.1089E-01  0.1089E-01  0.1686E+00  0.1686E+00
     -4.827  0.1424E-01  0.1424E-01  0.1701E+00  0.1701E+00
     -4.720  0.1072E-01  0.1072E-01  0.1713E+00  0.1713E+00
     -4.614  0.7921E-02  0.7921E-02  0.1721E+00  0.1721E+00
     -4.507  0.9367E-02  0.9367E-02  0.1731E+00  0.1731E+00
     -4.400  0.1693E-01  0.1693E-01  0.1749E+00  0.1749E+00
     -4.294  0.2216E-01  0.2216E-01  0.1773E+00  0.1773E+00
     -4.187  0.1858E-01  0.1858E-01  0.1792E+00  0.1792E+00
     -4.080  0.1883E-01  0.1883E-01  0.1813E+00  0.1813E+00
     -3.974  0.2218E-01  0.2218E-01  0.1836E+00  0.1836E+00
     -3.867  0.2355E-01  0.2355E-01  0.1861E+00  0.1861E+00
     -3.760  0.1819E-01  0.1819E-01  0.1881E+00  0.1881E+00
     -3.653  0.1818E-01  0.1818E-01  0.1900E+00  0.1900E+00
     -3.547  0.2040E-01  0.2040E-01  0.1922E+00  0.1922E+00
     -3.440  0.1570E-01  0.1570E-01  0.1939E+00  0.1939E+00
     -3.333  0.1389E-01  0.1389E-01  0.1953E+00  0.1953E+00
     -3.227  0.1306E-01  0.1306E-01  0.1967E+00  0.1967E+00
     -3.120  0.1720E-01  0.1720E-01  0.1986E+00  0.1986E+00
     -3.013  0.1825E-01  0.1825E-01  0.2005E+00  0.2005E+00
     -2.907  0.1181E-01  0.1181E-01  0.2018E+00  0.2018E+00
     -2.800  0.1181E-01  0.1181E-01  0.2030E+00  0.2030E+00
     -2.693  0.7472E-02  0.7472E-02  0.2038E+00  0.2038E+00
     -2.587  0.1024E-01  0.1023E-01  0.2049E+00  0.2049E+00
     -2.480  0.1981E-01  0.1981E-01  0.2070E+00  0.2070E+00
     -2.373  0.1407E-01  0.1407E-01  0.2085E+00  0.2085E+00
     -2.267  0.3952E-02  0.3952E-02  0.2090E+00  0.2090E+00
     -2.160  0.4684E-02  0.4684E-02  0.2095E+00  0.2095E+00
     -2.053  0.1025E-01  0.1025E-01  0.2106E+00  0.2106E+00
     -1.946  0.1035E-01  0.1035E-01  0.2117E+00  0.2117E+00
     -1.840  0.1125E-01  0.1125E-01  0.2129E+00  0.2129E+00
     -1.733  0.1162E-01  0.1162E-01  0.2141E+00  0.2141E+00
     -1.626  0.9493E-02  0.9493E-02  0.2151E+00  0.2151E+00
     -1.520  0.7122E-02  0.7122E-02  0.2159E+00  0.2159E+00
     -1.413  0.4553E-02  0.4553E-02  0.2164E+00  0.2164E+00
     -1.306  0.3953E-02  0.3953E-02  0.2168E+00  0.2168E+00
     -1.200  0.4018E-02  0.4018E-02  0.2172E+00  0.2172E+00
     -1.093  0.4030E-02  0.4030E-02  0.2176E+00  0.2176E+00
     -0.986  0.5866E-02  0.5866E-02  0.2183E+00  0.2183E+00
     -0.880  0.2819E-02  0.2819E-02  0.2186E+00  0.2186E+00
     -0.773  0.5920E-03  0.5920E-03  0.2186E+00  0.2186E+00
     -0.666  0.6306E-04  0.6306E-04  0.2186E+00  0.2186E+00
     -0.560  0.2526E-05  0.2526E-05  0.2186E+00  0.2186E+00
     -0.453  0.8806E-04  0.8806E-04  0.2187E+00  0.2187E+00
     -0.346  0.7628E-03  0.7628E-03  0.2187E+00  0.2187E+00
     -0.239  0.9841E-03  0.9841E-03  0.2188E+00  0.2188E+00
     -0.133  0.1926E-03  0.1926E-03  0.2189E+00  0.2189E+00
     -0.026  0.5190E-05  0.5190E-05  0.2189E+00  0.2189E+00
      0.081  0.3689E-06  0.3689E-06  0.2189E+00  0.2189E+00
      0.187  0.5738E-04  0.5737E-04  0.2189E+00  0.2189E+00
      0.294  0.1168E-02  0.1168E-02  0.2190E+00  0.2190E+00
      0.401  0.3344E-02  0.3344E-02  0.2193E+00  0.2193E+00
      0.507  0.1544E-02  0.1544E-02  0.2195E+00  0.2195E+00
      0.614  0.1252E-02  0.1252E-02  0.2196E+00  0.2196E+00
      0.721  0.3348E-02  0.3348E-02  0.2200E+00  0.2200E+00
      0.827  0.5261E-02  0.5261E-02  0.2206E+00  0.2206E+00
      0.934  0.1013E-01  0.1013E-01  0.2216E+00  0.2216E+00
      1.041  0.2588E-01  0.2588E-01  0.2244E+00  0.2244E+00
      1.147  0.2011E-01  0.2011E-01  0.2265E+00  0.2265E+00
      1.254  0.4861E-02  0.4861E-02  0.2271E+00  0.2271E+00
      1.361  0.4215E-02  0.4215E-02  0.2275E+00  0.2275E+00
      1.468  0.8494E-02  0.8494E-02  0.2284E+00  0.2284E+00
      1.574  0.1259E-01  0.1259E-01  0.2298E+00  0.2298E+00
      1.681  0.1927E-01  0.1927E-01  0.2318E+00  0.2318E+00
      1.788  0.1535E-01  0.1535E-01  0.2335E+00  0.2335E+00
      1.894  0.6481E-02  0.6481E-02  0.2342E+00  0.2342E+00
      2.001  0.6690E-02  0.6690E-02  0.2349E+00  0.2349E+00
      2.108  0.9964E-02  0.9964E-02  0.2359E+00  0.2359E+00
      2.214  0.7387E-02  0.7387E-02  0.2367E+00  0.2367E+00
      2.321  0.8299E-02  0.8299E-02  0.2376E+00  0.2376E+00
      2.428  0.7230E-02  0.7230E-02  0.2384E+00  0.2384E+00
      2.534  0.1058E-01  0.1058E-01  0.2395E+00  0.2395E+00
      2.641  0.1122E-01  0.1122E-01  0.2407E+00  0.2407E+00
      2.748  0.6607E-02  0.6607E-02  0.2414E+00  0.2414E+00
      2.854  0.4380E-02  0.4380E-02  0.2419E+00  0.2419E+00
      2.961  0.8832E-02  0.8832E-02  0.2428E+00  0.2428E+00
      3.068  0.1184E-01  0.1184E-01  0.2441E+00  0.2441E+00
      3.175  0.1013E-01  0.1013E-01  0.2452E+00  0.2452E+00
      3.281  0.9755E-02  0.9755E-02  0.2462E+00  0.2462E+00
      3.388  0.1007E-01  0.1007E-01  0.2473E+00  0.2473E+00
      3.495  0.1152E-01  0.1152E-01  0.2485E+00  0.2485E+00
      3.601  0.1702E-01  0.1702E-01  0.2503E+00  0.2503E+00
      3.708  0.2251E-01  0.2252E-01  0.2527E+00  0.2527E+00
      3.815  0.2460E-01  0.2460E-01  0.2553E+00  0.2553E+00
      3.921  0.2249E-01  0.2249E-01  0.2577E+00  0.2577E+00
      4.028  0.2381E-01  0.2381E-01  0.2603E+00  0.2603E+00
      4.135  0.2526E-01  0.2526E-01  0.2630E+00  0.2630E+00
      4.241  0.2493E-01  0.2493E-01  0.2656E+00  0.2656E+00
      4.348  0.2429E-01  0.2429E-01  0.2682E+00  0.2682E+00
      4.455  0.2248E-01  0.2248E-01  0.2706E+00  0.2706E+00
      4.562  0.2138E-01  0.2137E-01  0.2729E+00  0.2729E+00
      4.668  0.2147E-01  0.2146E-01  0.2752E+00  0.2752E+00
      4.775  0.2711E-01  0.2711E-01  0.2781E+00  0.2781E+00
      4.882  0.2455E-01  0.2455E-01  0.2807E+00  0.2807E+00
      4.988  0.2145E-01  0.2145E-01  0.2830E+00  0.2830E+00
      5.095  0.2526E-01  0.2525E-01  0.2857E+00  0.2857E+00
      5.202  0.2669E-01  0.2669E-01  0.2885E+00  0.2885E+00
      5.308  0.2372E-01  0.2372E-01  0.2911E+00  0.2911E+00
      5.415  0.2167E-01  0.2167E-01  0.2934E+00  0.2934E+00
      5.522  0.2031E-01  0.2031E-01  0.2956E+00  0.2956E+00
      5.628  0.2690E-01  0.2690E-01  0.2984E+00  0.2984E+00
      5.735  0.2316E-01  0.2315E-01  0.3009E+00  0.3009E+00
      5.842  0.2398E-01  0.2398E-01  0.3035E+00  0.3034E+00
      5.948  0.2019E-01  0.2019E-01  0.3056E+00  0.3056E+00
      6.055  0.1964E-01  0.1964E-01  0.3077E+00  0.3077E+00
      6.162  0.1489E-01  0.1488E-01  0.3093E+00  0.3093E+00
      6.269  0.1900E-01  0.1900E-01  0.3113E+00  0.3113E+00
      6.375  0.2334E-01  0.2334E-01  0.3138E+00  0.3138E+00
      6.482  0.2390E-01  0.2390E-01  0.3164E+00  0.3164E+00
      6.589  0.2455E-01  0.2455E-01  0.3190E+00  0.3190E+00
      6.695  0.2762E-01  0.2762E-01  0.3219E+00  0.3219E+00
      6.802  0.3175E-01  0.3175E-01  0.3253E+00  0.3253E+00
      6.909  0.2526E-01  0.2525E-01  0.3280E+00  0.3280E+00
      7.015  0.2527E-01  0.2526E-01  0.3307E+00  0.3307E+00
      7.122  0.2842E-01  0.2844E-01  0.3337E+00  0.3337E+00
      7.229  0.2206E-01  0.2207E-01  0.3361E+00  0.3361E+00
      7.335  0.1904E-01  0.1904E-01  0.3381E+00  0.3381E+00
      7.442  0.2005E-01  0.2003E-01  0.3403E+00  0.3403E+00
      7.549  0.2446E-01  0.2447E-01  0.3429E+00  0.3429E+00
      7.655  0.2493E-01  0.2494E-01  0.3455E+00  0.3455E+00
      7.762  0.3100E-01  0.3100E-01  0.3488E+00  0.3488E+00
      7.869  0.3284E-01  0.3285E-01  0.3523E+00  0.3523E+00
      7.976  0.2447E-01  0.2446E-01  0.3549E+00  0.3549E+00
      8.082  0.3200E-01  0.3199E-01  0.3584E+00  0.3584E+00
      8.189  0.3484E-01  0.3484E-01  0.3621E+00  0.3621E+00
      8.296  0.3405E-01  0.3405E-01  0.3657E+00  0.3657E+00
      8.402  0.3846E-01  0.3846E-01  0.3698E+00  0.3698E+00
      8.509  0.2512E-01  0.2513E-01  0.3725E+00  0.3725E+00
      8.616  0.1211E-01  0.1212E-01  0.3738E+00  0.3738E+00
      8.722  0.5188E-02  0.5188E-02  0.3743E+00  0.3743E+00
      8.829  0.3195E-02  0.3195E-02  0.3747E+00  0.3747E+00
      8.936  0.2441E-02  0.2441E-02  0.3749E+00  0.3749E+00
      9.042  0.5376E-03  0.5377E-03  0.3750E+00  0.3750E+00
      9.149  0.2083E-04  0.2083E-04  0.3750E+00  0.3750E+00
      9.256  0.1058E-06  0.1059E-06  0.3750E+00  0.3750E+00
      9.362  0.6215E-10  0.6218E-10  0.3750E+00  0.3750E+00
      9.469  0.4004E-14  0.4007E-14  0.3750E+00  0.3750E+00
      9.576  0.0000E+00  0.0000E+00  0.3750E+00  0.3750E+00
      9.683  0.0000E+00  0.0000E+00  0.3750E+00  0.3750E+00
      9.789  0.0000E+00  0.0000E+00  0.3750E+00  0.3750E+00
      9.896  0.0000E+00  0.0000E+00  0.3750E+00  0.3750E+00
     10.003  0.0000E+00  0.0000E+00  0.3750E+00  0.3750E+00
     10.109  0.0000E+00  0.0000E+00  0.3750E+00  0.3750E+00
     10.216  0.0000E+00  0.0000E+00  0.3750E+00  0.3750E+00
     10.323  0.0000E+00  0.0000E+00  0.3750E+00  0.3750E+00
