 vasp.6.3.2 27Jun22 (build Dec 22 2022 13:13:19) complex                        
  
 executed on             LinuxIFC date 2023.08.22  23:25:33
 running   48 mpi-ranks, with    1 threads/rank
 distrk:  each k-point on   48 cores,    1 groups
 distr:  one band on NCORE=   1 cores,   48 groups


--------------------------------------------------------------------------------------------------------


 INCAR:
   SYSTEM = Lattice
   ISTART = 0
   ICHARG = 2
   PREC = Accurate
   ENCUT = 450
   LCHARG = .FALSE.
   LWAVE = .FALSE.
   ALGO = Normal
   NELM = 64
   EDIFF = 1E-6
   EDIFFG = -1E-3
   SIGMA = 0.1
   ISMEAR = 0
   ISPIN = 2
   NSW = 128
   IBRION = 2
   POTIM = .5
   ISIF = 2
   GGA = PE
   IVDW = 12

 POTCAR:    PAW_PBE B 06Sep2000                   
 POTCAR:    PAW_PBE C 08Apr2002                   
 -----------------------------------------------------------------------------
|                                                                             |
|           W    W    AA    RRRRR   N    N  II  N    N   GGGG   !!!           |
|           W    W   A  A   R    R  NN   N  II  NN   N  G    G  !!!           |
|           W    W  A    A  R    R  N N  N  II  N N  N  G       !!!           |
|           W WW W  AAAAAA  RRRRR   N  N N  II  N  N N  G  GGG   !            |
|           WW  WW  A    A  R   R   N   NN  II  N   NN  G    G                |
|           W    W  A    A  R    R  N    N  II  N    N   GGGG   !!!           |
|                                                                             |
|     You use a magnetic or noncollinear calculation, but did not specify     |
|     the initial magnetic moment with the MAGMOM tag. Note that a            |
|     default of 1 will be used for all atoms. This ferromagnetic setup       |
|     may break the symmetry of the crystal, in particular it may rule        |
|     out finding an antiferromagnetic solution. Thence, we recommend         |
|     setting the initial magnetic moment manually or verifying carefully     |
|     that this magnetic setup is desired.                                    |
|                                                                             |
 -----------------------------------------------------------------------------

 POTCAR:    PAW_PBE B 06Sep2000                   
   SHA256 =  a32ced30f5ae56fd4d10b4325ff17eb3e4e38ee0f4288bc219fb012fddfa6e97 B/POTCAR              
   COPYR  = (c) Copyright 06Sep2000 Georg Kresse                                                    
   COPYR  = This file is part of the software VASP. Any use, copying, and all other rights are regul
   COPYR  = If you do not have a valid VASP license, you may not use, copy or distribute this file. 
   VRHFIN =B: s2p1                                                                                  
   LEXCH  = PE                                                                                      
   EATOM  =    71.1703 eV,    5.2309 Ry                                                             
                                                                                                    
   TITEL  = PAW_PBE B 06Sep2000                                                                     
   LULTRA =        F    use ultrasoft PP ?                                                          
   IUNSCR =        1    unscreen: 0-lin 1-nonlin 2-no                                               
   RPACOR =    1.200    partial core radius                                                         
   POMASS =   10.811; ZVAL   =    3.000    mass and valenz                                          
   RCORE  =    1.700    outmost cutoff radius                                                       
   RWIGS  =    1.710; RWIGS  =    0.905    wigner-seitz radius (au A)                               
   ENMAX  =  318.614; ENMIN  =  238.960 eV                                                          
   ICORE  =        2    local potential                                                             
   LCOR   =        T    correct aug charges                                                         
   LPAW   =        T    paw PP                                                                      
   EAUG   =  535.514                                                                                
   DEXC   =    0.000                                                                                
   RMAX   =    1.732    core radius for proj-oper                                                   
   RAUG   =    1.300    factor for augmentation sphere                                              
   RDEP   =    1.757    radius for radial grids                                                     
   RDEPT  =    1.436    core radius for aug-charge                                                  
                                                                                                    
   Atomic configuration                                                                             
    4 entries                                                                                       
     n  l   j            E        occ.                                                              
     1  0  0.50      -180.5896   2.0000                                                             
     2  0  0.50        -9.4431   2.0000                                                             
     2  1  0.50        -3.6068   1.0000                                                             
     3  2  1.50        -4.0817   0.0000                                                             
   Description                                                                                      
     l       E           TYP  RCUT    TYP  RCUT                                                     
     0     -9.4430752     23  1.500                                                                 
     0      0.8675899     23  1.500                                                                 
     1     -3.6067955     23  1.700                                                                 
     1      6.1086146     23  1.700                                                                 
     2     -4.0817478      7  1.700                                                                 
  local pseudopotential read in
  partial core-charges read in
  partial kinetic energy density read in
  atomic valenz-charges read in
  non local Contribution for L=           0  read in
    real space projection operators read in
  non local Contribution for L=           0  read in
    real space projection operators read in
  non local Contribution for L=           1  read in
    real space projection operators read in
  non local Contribution for L=           1  read in
    real space projection operators read in
    PAW grid and wavefunctions read in
 
   number of l-projection  operators is LMAX  =           4
   number of lm-projection operators is LMMAX =           8
 
 POTCAR:    PAW_PBE C 08Apr2002                   
   SHA256 =  253f7b50bb8d59471dbedb8285d89021f4a42ed1a2c5d38a03a736e69125dd95 C/POTCAR              
   COPYR  = (c) Copyright 08Apr2002 Georg Kresse                                                    
   COPYR  = This file is part of the software VASP. Any use, copying, and all other rights are regul
   COPYR  = If you do not have a valid VASP license, you may not use, copy or distribute this file. 
   VRHFIN =C: s2p2                                                                                  
   LEXCH  = PE                                                                                      
   EATOM  =   147.1560 eV,   10.8157 Ry                                                             
                                                                                                    
   TITEL  = PAW_PBE C 08Apr2002                                                                     
   LULTRA =        F    use ultrasoft PP ?                                                          
   IUNSCR =        1    unscreen: 0-lin 1-nonlin 2-no                                               
   RPACOR =    1.200    partial core radius                                                         
   POMASS =   12.011; ZVAL   =    4.000    mass and valenz                                          
   RCORE  =    1.500    outmost cutoff radius                                                       
   RWIGS  =    1.630; RWIGS  =    0.863    wigner-seitz radius (au A)                               
   ENMAX  =  400.000; ENMIN  =  300.000 eV                                                          
   ICORE  =        2    local potential                                                             
   LCOR   =        T    correct aug charges                                                         
   LPAW   =        T    paw PP                                                                      
   EAUG   =  644.873                                                                                
   DEXC   =    0.000                                                                                
   RMAX   =    1.529    core radius for proj-oper                                                   
   RAUG   =    1.300    factor for augmentation sphere                                              
   RDEP   =    1.501    radius for radial grids                                                     
   RDEPT  =    1.300    core radius for aug-charge                                                  
                                                                                                    
   Atomic configuration                                                                             
    4 entries                                                                                       
     n  l   j            E        occ.                                                              
     1  0  0.50      -273.3789   2.0000                                                             
     2  0  0.50       -13.7508   2.0000                                                             
     2  1  0.50        -5.2854   2.0000                                                             
     3  2  1.50        -5.4423   0.0000                                                             
   Description                                                                                      
     l       E           TYP  RCUT    TYP  RCUT                                                     
     0    -13.7508458     23  1.200                                                                 
     0     -8.2022199     23  1.200                                                                 
     1     -5.2854383     23  1.500                                                                 
     1     34.0145650     23  1.500                                                                 
     2     -5.4423304      7  1.500                                                                 
  local pseudopotential read in
  partial core-charges read in
  partial kinetic energy density read in
  atomic valenz-charges read in
  non local Contribution for L=           0  read in
    real space projection operators read in
  non local Contribution for L=           0  read in
    real space projection operators read in
  non local Contribution for L=           1  read in
    real space projection operators read in
  non local Contribution for L=           1  read in
    real space projection operators read in
    PAW grid and wavefunctions read in
 
   number of l-projection  operators is LMAX  =           4
   number of lm-projection operators is LMMAX =           8
 
  PAW_PBE B 06Sep2000                   :
 energy of atom  1       EATOM=  -71.1703
 kinetic energy error for atom=    0.0015 (will be added to EATOM!!)
  PAW_PBE C 08Apr2002                   :
 energy of atom  2       EATOM= -147.1560
 kinetic energy error for atom=    0.0116 (will be added to EATOM!!)
 
 
 POSCAR: Graphene-B4C3 Hollow 1 with lattice para
  positions in direct lattice
  No initial velocities read in
 exchange correlation table for  LEXCH =        8
   RHO(1)=    0.500       N(1)  =     2000
   RHO(2)=  100.500       N(2)  =     4000

 VTST: version 4.2, (08/11/21)

 CHAIN: initializing optimizer
 
 OPT: Using VASP Conjugate-Gradient optimizer
 CHAIN: Read ICHAIN            0
 
 POSCAR: Graphene-B4C3 Hollow 1 with lattice para
  positions in direct lattice
  No initial velocities read in
 


--------------------------------------------------------------------------------------------------------


 ion  position               nearest neighbor table
   1  0.004  0.003  0.120-   7 1.60   6 1.60   5 1.60   4 1.74   2 1.74   3 1.75
   2  0.357  0.003  0.097-   6 1.57   5 1.65   7 1.65   1 1.74
   3  0.004  0.356  0.097-   7 1.57   5 1.65   6 1.65   1 1.75
   4  0.651  0.650  0.097-   5 1.57   6 1.65   7 1.65   1 1.74
   5  0.328  0.327  0.100-   4 1.57   1 1.60   3 1.65   2 1.65
   6  0.680  0.003  0.100-   2 1.57   1 1.60   4 1.65   3 1.65
   7  0.004  0.679  0.100-   3 1.57   1 1.60   4 1.65   2 1.65
   8  0.111  0.389  0.337-  11 1.40  13 1.40   9 1.40
   9  0.278  0.222  0.337-  10 1.40  12 1.40   8 1.40
  10  0.111  0.889  0.337-   9 1.40  15 1.40  11 1.40
  11  0.278  0.722  0.337-   8 1.40  14 1.40  10 1.40
  12  0.611  0.389  0.337-   9 1.40  15 1.40  13 1.40
  13  0.778  0.222  0.337-   8 1.40  14 1.40  12 1.40
  14  0.611  0.889  0.337-  11 1.40  13 1.40  15 1.40
  15  0.778  0.722  0.337-  10 1.40  12 1.40  14 1.40
 
  LATTYP: Found a hexagonal cell.
 ALAT       =     4.8500000000
 C/A-ratio  =     3.0927835052
  
  Lattice vectors:
  
 A1 = (   4.2002232084,   2.4250000000,   0.0000000000)
 A2 = (  -4.2002232084,   2.4250000000,   0.0000000000)
 A3 = (   0.0000000000,   0.0000000000,  15.0000000000)


Analysis of symmetry for initial positions (statically):
=====================================================================
 Subroutine PRICEL returns:
 Original cell was already a primitive cell.
 

 Routine SETGRP: Setting up the symmetry group for a 
 hexagonal supercell.


 Subroutine GETGRP returns: Found  1 space group operations
 (whereof  1 operations were pure point group operations)
 out of a pool of 24 trial point group operations.


The static configuration has the point symmetry C_1 .


Analysis of symmetry for dynamics (positions and initial velocities):
=====================================================================
 Subroutine PRICEL returns:
 Original cell was already a primitive cell.
 

 Routine SETGRP: Setting up the symmetry group for a 
 hexagonal supercell.


 Subroutine GETGRP returns: Found  1 space group operations
 (whereof  1 operations were pure point group operations)
 out of a pool of 24 trial point group operations.


The dynamic configuration has the point symmetry C_1 .


Analysis of structural, dynamic, and magnetic symmetry:
=====================================================================
 Subroutine PRICEL returns:
 Original cell was already a primitive cell.
 

 Routine SETGRP: Setting up the symmetry group for a 
 hexagonal supercell.


 Subroutine GETGRP returns: Found  1 space group operations
 (whereof  1 operations were pure point group operations)
 out of a pool of 24 trial point group operations.


The overall configuration has the point symmetry C_1 .


 Subroutine INISYM returns: Found  1 space group operations
 (whereof  1 operations are pure point group operations),
 and found     1 'primitive' translations


----------------------------------------------------------------------------------------

                                     Primitive cell                                     

  volume of cell :     305.5662

  direct lattice vectors                    reciprocal lattice vectors
     4.200223208  2.425000000  0.000000000     0.119041293  0.206185567  0.000000000
    -4.200223208  2.425000000  0.000000000    -0.119041293  0.206185567  0.000000000
     0.000000000  0.000000000 15.000000000     0.000000000  0.000000000  0.066666667

  length of vectors
     4.850000000  4.850000000 15.000000000     0.238082585  0.238082585  0.066666667

  position of ions in fractional coordinates (direct lattice)
     0.004153607  0.002672102  0.120341338
     0.356953351  0.002855031  0.097488934
     0.004238577  0.355506992  0.097492564
     0.651422953  0.650065570  0.097476879
     0.328086463  0.326719375  0.100305078
     0.680277748  0.002780852  0.100275621
     0.004165300  0.678838078  0.100265587
     0.111110444  0.388888556  0.337266667
     0.277777444  0.222221556  0.337266667
     0.111110444  0.888888556  0.337266667
     0.277777444  0.722221556  0.337266667
     0.611110444  0.388888556  0.337266667
     0.777777444  0.222221556  0.337266667
     0.611110444  0.888888556  0.337266667
     0.777777444  0.722221556  0.337266667

  ion indices of the primitive-cell ions
   primitive index   ion index
                 1           1
                 2           2
                 3           3
                 4           4
                 5           5
                 6           6
                 7           7
                 8           8
                 9           9
                10          10
                11          11
                12          12
                13          13
                14          14
                15          15

----------------------------------------------------------------------------------------

 
 
 KPOINTS: k-points                                

Automatic generation of k-mesh.
 Grid dimensions read from file:
 generate k-points for:   12   12    1

 Generating k-lattice:

  Cartesian coordinates                     Fractional coordinates (reciprocal lattice)
     0.009920108  0.017182131  0.000000000     0.083333333 -0.000000000  0.000000000
    -0.009920108  0.017182131  0.000000000    -0.000000000  0.083333333  0.000000000
     0.000000000  0.000000000  0.066666667     0.000000000  0.000000000  1.000000000

  Length of vectors
     0.019840215  0.019840215  0.066666667

  Shift w.r.t. Gamma in fractional coordinates (k-lattice)
     0.000000000  0.000000000  0.000000000

 
 Subroutine IBZKPT returns following result:
 ===========================================
 
 Found     74 irreducible k-points:
 
 Following reciprocal coordinates:
            Coordinates               Weight
  0.000000  0.000000  0.000000      1.000000
  0.083333 -0.000000  0.000000      2.000000
 -0.000000  0.083333  0.000000      2.000000
 -0.083333  0.083333  0.000000      2.000000
  0.166667 -0.000000  0.000000      2.000000
  0.000000  0.166667  0.000000      2.000000
 -0.166667  0.166667  0.000000      2.000000
  0.250000 -0.000000  0.000000      2.000000
 -0.000000  0.250000  0.000000      2.000000
 -0.250000  0.250000  0.000000      2.000000
  0.333333 -0.000000  0.000000      2.000000
 -0.000000  0.333333  0.000000      2.000000
 -0.333333  0.333333  0.000000      2.000000
  0.416667 -0.000000  0.000000      2.000000
 -0.000000  0.416667  0.000000      2.000000
 -0.416667  0.416667  0.000000      2.000000
  0.500000 -0.000000  0.000000      1.000000
 -0.000000  0.500000  0.000000      1.000000
  0.500000  0.500000  0.000000      1.000000
  0.083333  0.083333  0.000000      2.000000
 -0.083333  0.166667  0.000000      2.000000
 -0.166667  0.083333  0.000000      2.000000
  0.166667  0.083333  0.000000      2.000000
 -0.083333  0.250000  0.000000      2.000000
 -0.250000  0.166667  0.000000      2.000000
 -0.166667  0.250000  0.000000      2.000000
  0.083333  0.166667  0.000000      2.000000
  0.250000 -0.083333  0.000000      2.000000
  0.250000  0.083333  0.000000      2.000000
 -0.083333  0.333333  0.000000      2.000000
 -0.333333  0.250000  0.000000      2.000000
 -0.250000  0.333333  0.000000      2.000000
  0.083333  0.250000  0.000000      2.000000
  0.333333 -0.083333  0.000000      2.000000
  0.333333  0.083333  0.000000      2.000000
 -0.083333  0.416667  0.000000      2.000000
 -0.416667  0.333333  0.000000      2.000000
 -0.333333  0.416667  0.000000      2.000000
  0.083333  0.333333  0.000000      2.000000
  0.416667 -0.083333  0.000000      2.000000
  0.416667  0.083333  0.000000      2.000000
 -0.083333  0.500000  0.000000      2.000000
  0.500000  0.416667  0.000000      2.000000
 -0.416667  0.500000  0.000000      2.000000
  0.083333  0.416667  0.000000      2.000000
  0.500000 -0.083333  0.000000      2.000000
  0.166667  0.166667  0.000000      2.000000
 -0.166667  0.333333  0.000000      2.000000
 -0.333333  0.166667  0.000000      2.000000
  0.250000  0.166667  0.000000      2.000000
 -0.166667  0.416667  0.000000      2.000000
 -0.416667  0.250000  0.000000      2.000000
 -0.250000  0.416667  0.000000      2.000000
  0.166667  0.250000  0.000000      2.000000
  0.416667 -0.166667  0.000000      2.000000
  0.333333  0.166667  0.000000      2.000000
 -0.166667  0.500000  0.000000      2.000000
  0.500000  0.333333  0.000000      2.000000
 -0.333333  0.500000  0.000000      2.000000
  0.166667  0.333333  0.000000      2.000000
  0.500000 -0.166667  0.000000      2.000000
  0.416667  0.166667  0.000000      2.000000
 -0.166667 -0.416667  0.000000      2.000000
  0.416667  0.416667  0.000000      2.000000
  0.250000  0.250000  0.000000      2.000000
 -0.250000  0.500000  0.000000      2.000000
  0.500000  0.250000  0.000000      2.000000
  0.333333  0.250000  0.000000      2.000000
 -0.250000 -0.416667  0.000000      2.000000
  0.416667  0.333333  0.000000      2.000000
 -0.333333 -0.416667  0.000000      2.000000
  0.250000  0.333333  0.000000      2.000000
 -0.416667 -0.250000  0.000000      2.000000
  0.333333  0.333333  0.000000      2.000000
 
 Following cartesian coordinates:
            Coordinates               Weight
  0.000000  0.000000  0.000000      1.000000
  0.009920  0.017182  0.000000      2.000000
 -0.009920  0.017182  0.000000      2.000000
 -0.019840 -0.000000  0.000000      2.000000
  0.019840  0.034364  0.000000      2.000000
 -0.019840  0.034364  0.000000      2.000000
 -0.039680 -0.000000  0.000000      2.000000
  0.029760  0.051546  0.000000      2.000000
 -0.029760  0.051546  0.000000      2.000000
 -0.059521  0.000000  0.000000      2.000000
  0.039680  0.068729  0.000000      2.000000
 -0.039680  0.068729  0.000000      2.000000
 -0.079361 -0.000000  0.000000      2.000000
  0.049601  0.085911  0.000000      2.000000
 -0.049601  0.085911  0.000000      2.000000
 -0.099201  0.000000  0.000000      2.000000
  0.059521  0.103093  0.000000      1.000000
 -0.059521  0.103093  0.000000      1.000000
  0.000000  0.206186  0.000000      1.000000
 -0.000000  0.034364  0.000000      2.000000
 -0.029760  0.017182  0.000000      2.000000
 -0.029760 -0.017182  0.000000      2.000000
  0.009920  0.051546  0.000000      2.000000
 -0.039680  0.034364  0.000000      2.000000
 -0.049601 -0.017182  0.000000      2.000000
 -0.049601  0.017182  0.000000      2.000000
 -0.009920  0.051546  0.000000      2.000000
  0.039680  0.034364  0.000000      2.000000
  0.019840  0.068729  0.000000      2.000000
 -0.049601  0.051546  0.000000      2.000000
 -0.069441 -0.017182  0.000000      2.000000
 -0.069441  0.017182  0.000000      2.000000
 -0.019840  0.068729  0.000000      2.000000
  0.049601  0.051546  0.000000      2.000000
  0.029760  0.085911  0.000000      2.000000
 -0.059521  0.068729  0.000000      2.000000
 -0.089281 -0.017182  0.000000      2.000000
 -0.089281  0.017182  0.000000      2.000000
 -0.029760  0.085911  0.000000      2.000000
  0.059521  0.068729  0.000000      2.000000
  0.039680  0.103093  0.000000      2.000000
 -0.069441  0.085911  0.000000      2.000000
  0.009920  0.189003  0.000000      2.000000
 -0.109121  0.017182  0.000000      2.000000
 -0.039680  0.103093  0.000000      2.000000
  0.069441  0.085911  0.000000      2.000000
  0.000000  0.068729  0.000000      2.000000
 -0.059521  0.034364  0.000000      2.000000
 -0.059521 -0.034364  0.000000      2.000000
  0.009920  0.085911  0.000000      2.000000
 -0.069441  0.051546  0.000000      2.000000
 -0.079361 -0.034364  0.000000      2.000000
 -0.079361  0.034364  0.000000      2.000000
 -0.009920  0.085911  0.000000      2.000000
  0.069441  0.051546  0.000000      2.000000
  0.019840  0.103093  0.000000      2.000000
 -0.079361  0.068729  0.000000      2.000000
  0.019840  0.171821  0.000000      2.000000
 -0.099201  0.034364  0.000000      2.000000
 -0.019840  0.103093  0.000000      2.000000
  0.079361  0.068729  0.000000      2.000000
  0.029760  0.120275  0.000000      2.000000
  0.029760 -0.120275  0.000000      2.000000
  0.000000  0.171821  0.000000      2.000000
  0.000000  0.103093  0.000000      2.000000
 -0.089281  0.051546  0.000000      2.000000
  0.029760  0.154639  0.000000      2.000000
  0.009920  0.120275  0.000000      2.000000
  0.019840 -0.137457  0.000000      2.000000
  0.009920  0.154639  0.000000      2.000000
  0.009920 -0.154639  0.000000      2.000000
 -0.009920  0.120275  0.000000      2.000000
 -0.019840 -0.137457  0.000000      2.000000
  0.000000  0.137457  0.000000      2.000000
 


--------------------------------------------------------------------------------------------------------




 Dimension of arrays:
   k-points           NKPTS =     74   k-points in BZ     NKDIM =     74   number of bands    NBANDS=     48
   number of dos      NEDOS =    301   number of ions     NIONS =     15
   non local maximal  LDIM  =      4   non local SUM 2l+1 LMDIM =      8
   total plane-waves  NPLWV = 139968
   max r-space proj   IRMAX =      1   max aug-charges    IRDMAX=   7342
   dimension x,y,z NGX =    36 NGY =   36 NGZ =  108
   dimension x,y,z NGXF=    72 NGYF=   72 NGZF=  216
   support grid    NGXF=    72 NGYF=   72 NGZF=  216
   ions per type =               4  11
   NGX,Y,Z   is equivalent  to a cutoff of  12.34, 12.34, 11.97 a.u.
   NGXF,Y,Z  is equivalent  to a cutoff of  24.68, 24.68, 23.94 a.u.

 SYSTEM =  Lattice                                 
 POSCAR =  Graphene-B4C3 Hollow 1 with lattice para

 Startparameter for this run:
   NWRITE =      2    write-flag & timer
   PREC   = accura    normal or accurate (medium, high low for compatibility)
   ISTART =      0    job   : 0-new  1-cont  2-samecut
   ICHARG =      2    charge: 1-file 2-atom 10-const
   ISPIN  =      2    spin polarized calculation?
   LNONCOLLINEAR =      F non collinear calculations
   LSORBIT =      F    spin-orbit coupling
   INIWAV =      1    electr: 0-lowe 1-rand  2-diag
   LASPH  =      F    aspherical Exc in radial PAW
 Electronic Relaxation 1
   ENCUT  =  450.0 eV  33.07 Ry    5.75 a.u.   8.39  8.39 25.95*2*pi/ulx,y,z
   ENINI  =  450.0     initial cutoff
   ENAUG  =  644.9 eV  augmentation charge cutoff
   NELM   =     64;   NELMIN=  2; NELMDL= -5     # of ELM steps 
   EDIFF  = 0.1E-05   stopping-criterion for ELM
   LREAL  =      F    real-space projection
   NLSPLINE    = F    spline interpolate recip. space projectors
   LCOMPAT=      F    compatible to vasp.4.4
   GGA_COMPAT  = T    GGA compatible to vasp.4.4-vasp.4.6
   LMAXPAW     = -100 max onsite density
   LMAXMIX     =    2 max onsite mixed and CHGCAR
   VOSKOWN=      0    Vosko Wilk Nusair interpolation
   ROPT   =    0.00000   0.00000
 Ionic relaxation
   EDIFFG = -.1E-02   stopping-criterion for IOM
   NSW    =    128    number of steps for IOM
   NBLOCK =      1;   KBLOCK =    128    inner block; outer block 
   IBRION =      2    ionic relax: 0-MD 1-quasi-New 2-CG
   NFREE  =      1    steps in history (QN), initial steepest desc. (CG)
   ISIF   =      2    stress and relaxation
   IWAVPR =     11    prediction:  0-non 1-charg 2-wave 3-comb
   ISYM   =      2    0-nonsym 1-usesym 2-fastsym
   LCORR  =      T    Harris-Foulkes like correction to forces

   POTIM  = 0.5000    time-step for ionic-motion
   TEIN   =    0.0    initial temperature
   TEBEG  =    0.0;   TEEND  =   0.0 temperature during run
   SMASS  =  -3.00    Nose mass-parameter (am)
   estimated Nose-frequenzy (Omega)   =  0.10E-29 period in steps = 0.13E+47 mass=  -0.538E-27a.u.
   SCALEE = 1.0000    scale energy and forces
   NPACO  =    256;   APACO  = 10.0  distance and # of slots for P.C.
   PSTRESS=    0.0 pullay stress

  Mass of Ions in am
   POMASS =  10.81 12.01
  Ionic Valenz
   ZVAL   =   3.00  4.00
  Atomic Wigner-Seitz radii
   RWIGS  =  -1.00 -1.00
  virtual crystal weights 
   VCA    =   1.00  1.00
   NELECT =      56.0000    total number of electrons
   NUPDOWN=      -1.0000    fix difference up-down

 DOS related values:
   EMIN   =  10.00;   EMAX   =-10.00  energy-range for DOS
   EFERMI =   0.00
   ISMEAR =     0;   SIGMA  =   0.10  broadening in eV -4-tet -1-fermi 0-gaus

 Electronic relaxation 2 (details)
   IALGO  =     38    algorithm
   LDIAG  =      T    sub-space diagonalisation (order eigenvalues)
   LSUBROT=      F    optimize rotation matrix (better conditioning)
   TURBO    =      0    0=normal 1=particle mesh
   IRESTART =      0    0=no restart 2=restart with 2 vectors
   NREBOOT  =      0    no. of reboots
   NMIN     =      0    reboot dimension
   EREF     =   0.00    reference energy to select bands
   IMIX   =      4    mixing-type and parameters
     AMIX     =   0.40;   BMIX     =  1.00
     AMIX_MAG =   1.60;   BMIX_MAG =  1.00
     AMIN     =   0.10
     WC   =   100.;   INIMIX=   1;  MIXPRE=   1;  MAXMIX= -45

 Intra band minimization:
   WEIMIN = 0.0010     energy-eigenvalue tresh-hold
   EBREAK =  0.52E-08  absolut break condition
   DEPER  =   0.30     relativ break condition  

   TIME   =   0.40     timestep for ELM

  volume/ion in A,a.u.               =      20.37       137.47
  Fermi-wavevector in a.u.,A,eV,Ry     =   0.929899  1.757254 11.765120  0.864712
  Thomas-Fermi vector in A             =   2.056230
 
 Write flags
   LWAVE        =      F    write WAVECAR
   LDOWNSAMPLE  =      F    k-point downsampling of WAVECAR
   LCHARG       =      F    write CHGCAR
   LVTOT        =      F    write LOCPOT, total local potential
   LVHAR        =      F    write LOCPOT, Hartree potential only
   LELF         =      F    write electronic localiz. function (ELF)
   LORBIT       =      0    0 simple, 1 ext, 2 COOP (PROOUT), +10 PAW based schemes


 Dipole corrections
   LMONO  =      F    monopole corrections only (constant potential shift)
   LDIPOL =      F    correct potential (dipole corrections)
   IDIPOL =      0    1-x, 2-y, 3-z, 4-all directions 
   EPSILON=  1.0000000 bulk dielectric constant

 Exchange correlation treatment:
   GGA     =    PE    GGA type
   LEXCH   =     8    internal setting for exchange type
   LIBXC   =     F    Libxc                    
   VOSKOWN =     0    Vosko Wilk Nusair interpolation
   LHFCALC =     F    Hartree Fock is set to
   LHFONE  =     F    Hartree Fock one center treatment
   AEXX    =    0.0000 exact exchange contribution

 Linear response parameters
   LEPSILON=     F    determine dielectric tensor
   LRPA    =     F    only Hartree local field effects (RPA)
   LNABLA  =     F    use nabla operator in PAW spheres
   LVEL    =     F    velocity operator in full k-point grid
   CSHIFT  =0.1000    complex shift for real part using Kramers Kronig
   OMEGAMAX=  -1.0    maximum frequency
   DEG_THRESHOLD= 0.2000000E-02 threshold for treating states as degnerate
   RTIME   =   -0.100 relaxation time in fs
  (WPLASMAI=    0.000 imaginary part of plasma frequency in eV, 0.658/RTIME)
   DFIELD  = 0.0000000 0.0000000 0.0000000 field for delta impulse in time
 
  Optional k-point grid parameters
   LKPOINTS_OPT  =     F    use optional k-point grid
   KPOINTS_OPT_MODE=     1    mode for optional k-point grid
 
 Orbital magnetization related:
   ORBITALMAG=     F  switch on orbital magnetization
   LCHIMAG   =     F  perturbation theory with respect to B field
   DQ        =  0.001000  dq finite difference perturbation B field
   LLRAUG    =     F  two centre corrections for induced B field



--------------------------------------------------------------------------------------------------------


 conjugate gradient relaxation of ions
 charge density and potential will be updated during run
 spin polarized calculation
 Variant of blocked Davidson
 Davidson routine will perform the subspace rotation
 perform sub-space diagonalisation
    after iterative eigenvector-optimisation
 modified Broyden-mixing scheme, WC =      100.0
 initial mixing is a Kerker type mixing with AMIX =  0.4000 and BMIX =      1.0000
 Hartree-type preconditioning will be used
 using additional bands           20
 reciprocal scheme for non local part
 use partial core corrections
 calculate Harris-corrections to forces 
   (improved forces if not selfconsistent)
 use gradient corrections 
 use of overlap-Matrix (Vanderbilt PP)
 Gauss-broadening in eV      SIGMA  =   0.10


--------------------------------------------------------------------------------------------------------


  energy-cutoff  :      450.00
  volume of cell :      305.57
      direct lattice vectors                 reciprocal lattice vectors
     4.200223208  2.425000000  0.000000000     0.119041293  0.206185567  0.000000000
    -4.200223208  2.425000000  0.000000000    -0.119041293  0.206185567  0.000000000
     0.000000000  0.000000000 15.000000000     0.000000000  0.000000000  0.066666667

  length of vectors
     4.850000000  4.850000000 15.000000000     0.238082585  0.238082585  0.066666667


 
 k-points in units of 2pi/SCALE and weight: k-points                                
   0.00000000  0.00000000  0.00000000       0.007
   0.00992011  0.01718213  0.00000000       0.014
  -0.00992011  0.01718213  0.00000000       0.014
  -0.01984022 -0.00000000  0.00000000       0.014
   0.01984022  0.03436426  0.00000000       0.014
  -0.01984022  0.03436426  0.00000000       0.014
  -0.03968043 -0.00000000  0.00000000       0.014
   0.02976032  0.05154639  0.00000000       0.014
  -0.02976032  0.05154639  0.00000000       0.014
  -0.05952065  0.00000000  0.00000000       0.014
   0.03968043  0.06872852  0.00000000       0.014
  -0.03968043  0.06872852  0.00000000       0.014
  -0.07936086 -0.00000000  0.00000000       0.014
   0.04960054  0.08591065  0.00000000       0.014
  -0.04960054  0.08591065  0.00000000       0.014
  -0.09920108  0.00000000  0.00000000       0.014
   0.05952065  0.10309278  0.00000000       0.007
  -0.05952065  0.10309278  0.00000000       0.007
   0.00000000  0.20618557  0.00000000       0.007
  -0.00000000  0.03436426  0.00000000       0.014
  -0.02976032  0.01718213  0.00000000       0.014
  -0.02976032 -0.01718213  0.00000000       0.014
   0.00992011  0.05154639  0.00000000       0.014
  -0.03968043  0.03436426  0.00000000       0.014
  -0.04960054 -0.01718213  0.00000000       0.014
  -0.04960054  0.01718213  0.00000000       0.014
  -0.00992011  0.05154639  0.00000000       0.014
   0.03968043  0.03436426  0.00000000       0.014
   0.01984022  0.06872852  0.00000000       0.014
  -0.04960054  0.05154639  0.00000000       0.014
  -0.06944075 -0.01718213  0.00000000       0.014
  -0.06944075  0.01718213  0.00000000       0.014
  -0.01984022  0.06872852  0.00000000       0.014
   0.04960054  0.05154639  0.00000000       0.014
   0.02976032  0.08591065  0.00000000       0.014
  -0.05952065  0.06872852  0.00000000       0.014
  -0.08928097 -0.01718213  0.00000000       0.014
  -0.08928097  0.01718213  0.00000000       0.014
  -0.02976032  0.08591065  0.00000000       0.014
   0.05952065  0.06872852  0.00000000       0.014
   0.03968043  0.10309278  0.00000000       0.014
  -0.06944075  0.08591065  0.00000000       0.014
   0.00992011  0.18900344  0.00000000       0.014
  -0.10912118  0.01718213  0.00000000       0.014
  -0.03968043  0.10309278  0.00000000       0.014
   0.06944075  0.08591065  0.00000000       0.014
   0.00000000  0.06872852  0.00000000       0.014
  -0.05952065  0.03436426  0.00000000       0.014
  -0.05952065 -0.03436426  0.00000000       0.014
   0.00992011  0.08591065  0.00000000       0.014
  -0.06944075  0.05154639  0.00000000       0.014
  -0.07936086 -0.03436426  0.00000000       0.014
  -0.07936086  0.03436426  0.00000000       0.014
  -0.00992011  0.08591065  0.00000000       0.014
   0.06944075  0.05154639  0.00000000       0.014
   0.01984022  0.10309278  0.00000000       0.014
  -0.07936086  0.06872852  0.00000000       0.014
   0.01984022  0.17182131  0.00000000       0.014
  -0.09920108  0.03436426  0.00000000       0.014
  -0.01984022  0.10309278  0.00000000       0.014
   0.07936086  0.06872852  0.00000000       0.014
   0.02976032  0.12027491  0.00000000       0.014
   0.02976032 -0.12027491  0.00000000       0.014
   0.00000000  0.17182131  0.00000000       0.014
   0.00000000  0.10309278  0.00000000       0.014
  -0.08928097  0.05154639  0.00000000       0.014
   0.02976032  0.15463918  0.00000000       0.014
   0.00992011  0.12027491  0.00000000       0.014
   0.01984022 -0.13745704  0.00000000       0.014
   0.00992011  0.15463918  0.00000000       0.014
   0.00992011 -0.15463918  0.00000000       0.014
  -0.00992011  0.12027491  0.00000000       0.014
  -0.01984022 -0.13745704  0.00000000       0.014
   0.00000000  0.13745704  0.00000000       0.014
 
 k-points in reciprocal lattice and weights: k-points                                
   0.00000000  0.00000000  0.00000000       0.007
   0.08333333 -0.00000000  0.00000000       0.014
  -0.00000000  0.08333333  0.00000000       0.014
  -0.08333333  0.08333333  0.00000000       0.014
   0.16666667 -0.00000000  0.00000000       0.014
   0.00000000  0.16666667  0.00000000       0.014
  -0.16666667  0.16666667  0.00000000       0.014
   0.25000000 -0.00000000  0.00000000       0.014
  -0.00000000  0.25000000  0.00000000       0.014
  -0.25000000  0.25000000  0.00000000       0.014
   0.33333333 -0.00000000  0.00000000       0.014
  -0.00000000  0.33333333  0.00000000       0.014
  -0.33333333  0.33333333  0.00000000       0.014
   0.41666667 -0.00000000  0.00000000       0.014
  -0.00000000  0.41666667  0.00000000       0.014
  -0.41666667  0.41666667  0.00000000       0.014
   0.50000000 -0.00000000  0.00000000       0.007
  -0.00000000  0.50000000  0.00000000       0.007
   0.50000000  0.50000000  0.00000000       0.007
   0.08333333  0.08333333  0.00000000       0.014
  -0.08333333  0.16666667  0.00000000       0.014
  -0.16666667  0.08333333  0.00000000       0.014
   0.16666667  0.08333333  0.00000000       0.014
  -0.08333333  0.25000000  0.00000000       0.014
  -0.25000000  0.16666667  0.00000000       0.014
  -0.16666667  0.25000000  0.00000000       0.014
   0.08333333  0.16666667  0.00000000       0.014
   0.25000000 -0.08333333  0.00000000       0.014
   0.25000000  0.08333333  0.00000000       0.014
  -0.08333333  0.33333333  0.00000000       0.014
  -0.33333333  0.25000000  0.00000000       0.014
  -0.25000000  0.33333333  0.00000000       0.014
   0.08333333  0.25000000  0.00000000       0.014
   0.33333333 -0.08333333  0.00000000       0.014
   0.33333333  0.08333333  0.00000000       0.014
  -0.08333333  0.41666667  0.00000000       0.014
  -0.41666667  0.33333333  0.00000000       0.014
  -0.33333333  0.41666667  0.00000000       0.014
   0.08333333  0.33333333  0.00000000       0.014
   0.41666667 -0.08333333  0.00000000       0.014
   0.41666667  0.08333333  0.00000000       0.014
  -0.08333333  0.50000000  0.00000000       0.014
   0.50000000  0.41666667  0.00000000       0.014
  -0.41666667  0.50000000  0.00000000       0.014
   0.08333333  0.41666667  0.00000000       0.014
   0.50000000 -0.08333333  0.00000000       0.014
   0.16666667  0.16666667  0.00000000       0.014
  -0.16666667  0.33333333  0.00000000       0.014
  -0.33333333  0.16666667  0.00000000       0.014
   0.25000000  0.16666667  0.00000000       0.014
  -0.16666667  0.41666667  0.00000000       0.014
  -0.41666667  0.25000000  0.00000000       0.014
  -0.25000000  0.41666667  0.00000000       0.014
   0.16666667  0.25000000  0.00000000       0.014
   0.41666667 -0.16666667  0.00000000       0.014
   0.33333333  0.16666667  0.00000000       0.014
  -0.16666667  0.50000000  0.00000000       0.014
   0.50000000  0.33333333  0.00000000       0.014
  -0.33333333  0.50000000  0.00000000       0.014
   0.16666667  0.33333333  0.00000000       0.014
   0.50000000 -0.16666667  0.00000000       0.014
   0.41666667  0.16666667  0.00000000       0.014
  -0.16666667 -0.41666667  0.00000000       0.014
   0.41666667  0.41666667  0.00000000       0.014
   0.25000000  0.25000000  0.00000000       0.014
  -0.25000000  0.50000000  0.00000000       0.014
   0.50000000  0.25000000  0.00000000       0.014
   0.33333333  0.25000000  0.00000000       0.014
  -0.25000000 -0.41666667  0.00000000       0.014
   0.41666667  0.33333333  0.00000000       0.014
  -0.33333333 -0.41666667  0.00000000       0.014
   0.25000000  0.33333333  0.00000000       0.014
  -0.41666667 -0.25000000  0.00000000       0.014
   0.33333333  0.33333333  0.00000000       0.014
 
 position of ions in fractional coordinates (direct lattice) 
   0.00415361  0.00267210  0.12034134
   0.35695335  0.00285503  0.09748893
   0.00423858  0.35550699  0.09749256
   0.65142295  0.65006557  0.09747688
   0.32808646  0.32671938  0.10030508
   0.68027775  0.00278085  0.10027562
   0.00416530  0.67883808  0.10026559
   0.11111044  0.38888856  0.33726667
   0.27777744  0.22222156  0.33726667
   0.11111044  0.88888856  0.33726667
   0.27777744  0.72222156  0.33726667
   0.61111044  0.38888856  0.33726667
   0.77777744  0.22222156  0.33726667
   0.61111044  0.88888856  0.33726667
   0.77777744  0.72222156  0.33726667
 
 position of ions in cartesian coordinates  (Angst):
   0.00622266  0.01655234  1.80512007
   1.48729198  0.87253533  1.46233401
  -1.47540575  0.87238300  1.46238846
   0.00570131  3.15610967  1.46215318
   0.00574207  1.58790416  1.50457617
   2.84563819  1.65641711  1.50413432
  -2.83377626  1.65628319  1.50398380
  -1.16673007  1.21249758  5.05900000
   0.23334713  1.21249758  5.05900000
  -3.26684167  2.42499758  5.05900000
  -1.86676447  2.42499758  5.05900000
   0.93338154  2.42499758  5.05900000
   2.33345874  2.42499758  5.05900000
  -1.16673007  3.63749758  5.05900000
   0.23334713  3.63749758  5.05900000
 


--------------------------------------------------------------------------------------------------------


 k-point   1 :   0.0000 0.0000 0.0000  plane waves:    6669
 k-point   2 :   0.0833-0.0000 0.0000  plane waves:    6635
 k-point   3 :  -0.0000 0.0833 0.0000  plane waves:    6635
 k-point   4 :  -0.0833 0.0833 0.0000  plane waves:    6635
 k-point   5 :   0.1667-0.0000 0.0000  plane waves:    6655
 k-point   6 :   0.0000 0.1667 0.0000  plane waves:    6655
 k-point   7 :  -0.1667 0.1667 0.0000  plane waves:    6655
 k-point   8 :   0.2500-0.0000 0.0000  plane waves:    6633
 k-point   9 :  -0.0000 0.2500 0.0000  plane waves:    6633
 k-point  10 :  -0.2500 0.2500 0.0000  plane waves:    6633
 k-point  11 :   0.3333-0.0000 0.0000  plane waves:    6626
 k-point  12 :  -0.0000 0.3333 0.0000  plane waves:    6626
 k-point  13 :  -0.3333 0.3333 0.0000  plane waves:    6626
 k-point  14 :   0.4167-0.0000 0.0000  plane waves:    6606
 k-point  15 :  -0.0000 0.4167 0.0000  plane waves:    6606
 k-point  16 :  -0.4167 0.4167 0.0000  plane waves:    6606
 k-point  17 :   0.5000-0.0000 0.0000  plane waves:    6598
 k-point  18 :  -0.0000 0.5000 0.0000  plane waves:    6598
 k-point  19 :   0.5000 0.5000 0.0000  plane waves:    6598
 k-point  20 :   0.0833 0.0833 0.0000  plane waves:    6653
 k-point  21 :  -0.0833 0.1667 0.0000  plane waves:    6653
 k-point  22 :  -0.1667 0.0833 0.0000  plane waves:    6653
 k-point  23 :   0.1667 0.0833 0.0000  plane waves:    6640
 k-point  24 :  -0.0833 0.2500 0.0000  plane waves:    6640
 k-point  25 :  -0.2500 0.1667 0.0000  plane waves:    6640
 k-point  26 :  -0.1667 0.2500 0.0000  plane waves:    6640
 k-point  27 :   0.0833 0.1667 0.0000  plane waves:    6640
 k-point  28 :   0.2500-0.0833 0.0000  plane waves:    6640
 k-point  29 :   0.2500 0.0833 0.0000  plane waves:    6622
 k-point  30 :  -0.0833 0.3333 0.0000  plane waves:    6622
 k-point  31 :  -0.3333 0.2500 0.0000  plane waves:    6622
 k-point  32 :  -0.2500 0.3333 0.0000  plane waves:    6622
 k-point  33 :   0.0833 0.2500 0.0000  plane waves:    6622
 k-point  34 :   0.3333-0.0833 0.0000  plane waves:    6622
 k-point  35 :   0.3333 0.0833 0.0000  plane waves:    6609
 k-point  36 :  -0.0833 0.4167 0.0000  plane waves:    6609
 k-point  37 :  -0.4167 0.3333 0.0000  plane waves:    6609
 k-point  38 :  -0.3333 0.4167 0.0000  plane waves:    6609
 k-point  39 :   0.0833 0.3333 0.0000  plane waves:    6609
 k-point  40 :   0.4167-0.0833 0.0000  plane waves:    6609
 k-point  41 :   0.4167 0.0833 0.0000  plane waves:    6608
 k-point  42 :  -0.0833 0.5000 0.0000  plane waves:    6608
 k-point  43 :   0.5000 0.4167 0.0000  plane waves:    6608
 k-point  44 :  -0.4167 0.5000 0.0000  plane waves:    6608
 k-point  45 :   0.0833 0.4167 0.0000  plane waves:    6608
 k-point  46 :   0.5000-0.0833 0.0000  plane waves:    6608
 k-point  47 :   0.1667 0.1667 0.0000  plane waves:    6605
 k-point  48 :  -0.1667 0.3333 0.0000  plane waves:    6605
 k-point  49 :  -0.3333 0.1667 0.0000  plane waves:    6605
 k-point  50 :   0.2500 0.1667 0.0000  plane waves:    6621
 k-point  51 :  -0.1667 0.4167 0.0000  plane waves:    6621
 k-point  52 :  -0.4167 0.2500 0.0000  plane waves:    6621
 k-point  53 :  -0.2500 0.4167 0.0000  plane waves:    6621
 k-point  54 :   0.1667 0.2500 0.0000  plane waves:    6621
 k-point  55 :   0.4167-0.1667 0.0000  plane waves:    6621
 k-point  56 :   0.3333 0.1667 0.0000  plane waves:    6616
 k-point  57 :  -0.1667 0.5000 0.0000  plane waves:    6616
 k-point  58 :   0.5000 0.3333 0.0000  plane waves:    6616
 k-point  59 :  -0.3333 0.5000 0.0000  plane waves:    6616
 k-point  60 :   0.1667 0.3333 0.0000  plane waves:    6616
 k-point  61 :   0.5000-0.1667 0.0000  plane waves:    6616
 k-point  62 :   0.4167 0.1667 0.0000  plane waves:    6616
 k-point  63 :  -0.1667-0.4167 0.0000  plane waves:    6616
 k-point  64 :   0.4167 0.4167 0.0000  plane waves:    6616
 k-point  65 :   0.2500 0.2500 0.0000  plane waves:    6622
 k-point  66 :  -0.2500 0.5000 0.0000  plane waves:    6622
 k-point  67 :   0.5000 0.2500 0.0000  plane waves:    6622
 k-point  68 :   0.3333 0.2500 0.0000  plane waves:    6618
 k-point  69 :  -0.2500-0.4167 0.0000  plane waves:    6618
 k-point  70 :   0.4167 0.3333 0.0000  plane waves:    6618
 k-point  71 :  -0.3333-0.4167 0.0000  plane waves:    6618
 k-point  72 :   0.2500 0.3333 0.0000  plane waves:    6618
 k-point  73 :  -0.4167-0.2500 0.0000  plane waves:    6618
 k-point  74 :   0.3333 0.3333 0.0000  plane waves:    6642

 maximum and minimum number of plane-waves per node :      6669     6598

 maximum number of plane-waves:      6669
 maximum index in each direction: 
   IXMAX=    8   IYMAX=    8   IZMAX=   25
   IXMIN=   -8   IYMIN=   -8   IZMIN=  -25


 serial   3D FFT for wavefunctions
 parallel 3D FFT for charge:
    minimum data exchange during FFTs selected (reduces bandwidth)


 total amount of memory used by VASP MPI-rank0   126335. kBytes
=======================================================================

   base      :      30000. kBytes
   nonl-proj :      64798. kBytes
   fftplans  :       1560. kBytes
   grid      :      13745. kBytes
   one-center:         92. kBytes
   wavefun   :      16140. kBytes
 
     INWAV:  cpu time      0.0000: real time      0.0000
 Broyden mixing: mesh for mixing (old mesh)
   NGX = 17   NGY = 17   NGZ = 51
  (NGX  = 72   NGY  = 72   NGZ  =216)
  gives a total of  14739 points

 initial charge density was supplied:
 charge density of overlapping atoms calculated
 number of electron      56.0000000 magnetization      15.0000000
 keeping initial charge density in first step


--------------------------------------------------------------------------------------------------------


 Maximum index for augmentation-charges          395 (set IRDMAX)


--------------------------------------------------------------------------------------------------------


 First call to EWALD:  gamma=   0.263
 Maximum number of real-space cells 4x 4x 2
 Maximum number of reciprocal cells 2x 2x 6

    FEWALD:  cpu time      0.0015: real time      0.0019


--------------------------------------- Iteration      1(   1)  ---------------------------------------


    POTLOK:  cpu time      0.0400: real time      0.0420
    SETDIJ:  cpu time      0.0041: real time      0.0041
     EDDAV:  cpu time      5.4868: real time      5.5494
       DOS:  cpu time      0.0022: real time      0.0026
    --------------------------------------------
      LOOP:  cpu time      5.5331: real time      5.5981

 eigenvalue-minimisations  : 14208
 total energy-change (2. order) : 0.2036848E+03  (-0.2566081E+04)
 number of electron      56.0000000 magnetization      15.0000000
 augmentation part       56.0000000 magnetization      15.0000000

 Free energy of the ion-electron system (eV)
  ---------------------------------------------------
  alpha Z        PSCENC =        58.21092976
  Ewald energy   TEWEN  =      4675.31679809
  -Hartree energ DENC   =     -6232.26266272
  -exchange      EXHF   =         0.00000000
  -V(xc)+E(xc)   XCENC  =       175.01077979
  PAW double counting   =      1365.87943566    -1368.52100941
  entropy T*S    EENTRO =        -0.01666612
  eigenvalues    EBANDS =      -373.19619920
  atomic energy  EATOM  =      1903.26342058
  Solvation  Ediel_sol  =         0.00000000
  ---------------------------------------------------
  free energy    TOTEN  =       203.68482643 eV

  energy without entropy =      203.70149255  energy(sigma->0) =      203.69315949


--------------------------------------------------------------------------------------------------------




--------------------------------------- Iteration      1(   2)  ---------------------------------------


     EDDAV:  cpu time      7.9498: real time      8.0211
       DOS:  cpu time      0.0013: real time      0.0013
    --------------------------------------------
      LOOP:  cpu time      7.9511: real time      8.0224

 eigenvalue-minimisations  : 20304
 total energy-change (2. order) :-0.3199490E+03  (-0.3183988E+03)
 number of electron      56.0000000 magnetization      15.0000000
 augmentation part       56.0000000 magnetization      15.0000000

 Free energy of the ion-electron system (eV)
  ---------------------------------------------------
  alpha Z        PSCENC =        58.21092976
  Ewald energy   TEWEN  =      4675.31679809
  -Hartree energ DENC   =     -6232.26266272
  -exchange      EXHF   =         0.00000000
  -V(xc)+E(xc)   XCENC  =       175.01077979
  PAW double counting   =      1365.87943566    -1368.52100941
  entropy T*S    EENTRO =        -0.00136851
  eigenvalues    EBANDS =      -693.16054487
  atomic energy  EATOM  =      1903.26342058
  Solvation  Ediel_sol  =         0.00000000
  ---------------------------------------------------
  free energy    TOTEN  =      -116.26422163 eV

  energy without entropy =     -116.26285313  energy(sigma->0) =     -116.26353738


--------------------------------------------------------------------------------------------------------




--------------------------------------- Iteration      1(   3)  ---------------------------------------


     EDDAV:  cpu time     11.1991: real time     11.2940
       DOS:  cpu time      0.0013: real time      0.0013
    --------------------------------------------
      LOOP:  cpu time     11.2004: real time     11.2953

 eigenvalue-minimisations  : 26592
 total energy-change (2. order) :-0.1304728E+02  (-0.1303241E+02)
 number of electron      56.0000000 magnetization      15.0000000
 augmentation part       56.0000000 magnetization      15.0000000

 Free energy of the ion-electron system (eV)
  ---------------------------------------------------
  alpha Z        PSCENC =        58.21092976
  Ewald energy   TEWEN  =      4675.31679809
  -Hartree energ DENC   =     -6232.26266272
  -exchange      EXHF   =         0.00000000
  -V(xc)+E(xc)   XCENC  =       175.01077979
  PAW double counting   =      1365.87943566    -1368.52100941
  entropy T*S    EENTRO =        -0.00310240
  eigenvalues    EBANDS =      -706.20609379
  atomic energy  EATOM  =      1903.26342058
  Solvation  Ediel_sol  =         0.00000000
  ---------------------------------------------------
  free energy    TOTEN  =      -129.31150445 eV

  energy without entropy =     -129.30840205  energy(sigma->0) =     -129.30995325


--------------------------------------------------------------------------------------------------------




--------------------------------------- Iteration      1(   4)  ---------------------------------------


     EDDAV:  cpu time      8.3101: real time      8.3792
       DOS:  cpu time      0.0011: real time      0.0011
    --------------------------------------------
      LOOP:  cpu time      8.3112: real time      8.3803

 eigenvalue-minimisations  : 20544
 total energy-change (2. order) :-0.2486191E-01  (-0.2486004E-01)
 number of electron      56.0000000 magnetization      15.0000000
 augmentation part       56.0000000 magnetization      15.0000000

 Free energy of the ion-electron system (eV)
  ---------------------------------------------------
  alpha Z        PSCENC =        58.21092976
  Ewald energy   TEWEN  =      4675.31679809
  -Hartree energ DENC   =     -6232.26266272
  -exchange      EXHF   =         0.00000000
  -V(xc)+E(xc)   XCENC  =       175.01077979
  PAW double counting   =      1365.87943566    -1368.52100941
  entropy T*S    EENTRO =        -0.00312676
  eigenvalues    EBANDS =      -706.23093134
  atomic energy  EATOM  =      1903.26342058
  Solvation  Ediel_sol  =         0.00000000
  ---------------------------------------------------
  free energy    TOTEN  =      -129.33636636 eV

  energy without entropy =     -129.33323960  energy(sigma->0) =     -129.33480298


--------------------------------------------------------------------------------------------------------




--------------------------------------- Iteration      1(   5)  ---------------------------------------


     EDDAV:  cpu time     10.7289: real time     10.8070
       DOS:  cpu time      0.0012: real time      0.0012
    CHARGE:  cpu time      0.2593: real time      0.2670
    MIXING:  cpu time      0.0014: real time      0.0023
    --------------------------------------------
      LOOP:  cpu time     10.9908: real time     11.0774

 eigenvalue-minimisations  : 25680
 total energy-change (2. order) :-0.5726214E-04  (-0.5726217E-04)
 number of electron      55.9999996 magnetization      11.4642237
 augmentation part        1.2016657 magnetization      11.2820275

 Broyden mixing:
  rms(total) = 0.24373E+01    rms(broyden)= 0.24371E+01
  rms(prec ) = 0.26110E+01
  weight for this iteration     100.00

 Free energy of the ion-electron system (eV)
  ---------------------------------------------------
  alpha Z        PSCENC =        58.21092976
  Ewald energy   TEWEN  =      4675.31679809
  -Hartree energ DENC   =     -6232.26266272
  -exchange      EXHF   =         0.00000000
  -V(xc)+E(xc)   XCENC  =       175.01077979
  PAW double counting   =      1365.87943566    -1368.52100941
  entropy T*S    EENTRO =        -0.00312686
  eigenvalues    EBANDS =      -706.23098851
  atomic energy  EATOM  =      1903.26342058
  Solvation  Ediel_sol  =         0.00000000
  ---------------------------------------------------
  free energy    TOTEN  =      -129.33642362 eV

  energy without entropy =     -129.33329677  energy(sigma->0) =     -129.33486019


--------------------------------------------------------------------------------------------------------




--------------------------------------- Iteration      1(   6)  ---------------------------------------


    POTLOK:  cpu time      0.0359: real time      0.0388
    SETDIJ:  cpu time      0.0034: real time      0.0035
     EDDAV:  cpu time     10.6477: real time     10.7272
       DOS:  cpu time      0.0012: real time      0.0012
    CHARGE:  cpu time      0.2555: real time      0.2632
    MIXING:  cpu time      0.0010: real time      0.0012
    --------------------------------------------
      LOOP:  cpu time     10.9446: real time     11.0351

 eigenvalue-minimisations  : 25632
 total energy-change (2. order) : 0.3733535E+02  (-0.7225555E+01)
 number of electron      55.9999997 magnetization       7.8666134
 augmentation part        1.1485896 magnetization       7.5000161

 Broyden mixing:
  rms(total) = 0.13834E+01    rms(broyden)= 0.13833E+01
  rms(prec ) = 0.14951E+01
  weight for this iteration     100.00

 eigenvalues of (default mixing * dielectric matrix)
  average eigenvalue GAMMA=   1.0706
  1.0706

 Free energy of the ion-electron system (eV)
  ---------------------------------------------------
  alpha Z        PSCENC =        58.21092976
  Ewald energy   TEWEN  =      4675.31679809
  -Hartree energ DENC   =     -6306.65245683
  -exchange      EXHF   =         0.00000000
  -V(xc)+E(xc)   XCENC  =       199.20544590
  PAW double counting   =      2631.43673709    -2635.28113906
  entropy T*S    EENTRO =        -0.00647756
  eigenvalues    EBANDS =      -617.49433406
  atomic energy  EATOM  =      1903.26342058
  Solvation  Ediel_sol  =         0.00000000
  ---------------------------------------------------
  free energy    TOTEN  =       -92.00107611 eV

  energy without entropy =      -91.99459855  energy(sigma->0) =      -91.99783733


--------------------------------------------------------------------------------------------------------




--------------------------------------- Iteration      1(   7)  ---------------------------------------


    POTLOK:  cpu time      0.0328: real time      0.0356
    SETDIJ:  cpu time      0.0034: real time      0.0035
     EDDAV:  cpu time      8.8776: real time      8.9457
       DOS:  cpu time      0.0013: real time      0.0013
    CHARGE:  cpu time      0.2560: real time      0.2630
    MIXING:  cpu time      0.0010: real time      0.0015
    --------------------------------------------
      LOOP:  cpu time      9.1721: real time      9.2506

 eigenvalue-minimisations  : 21600
 total energy-change (2. order) :-0.8411409E+01  (-0.9811442E+00)
 number of electron      55.9999997 magnetization       4.2831007
 augmentation part        1.0893027 magnetization       4.0071877

 Broyden mixing:
  rms(total) = 0.80809E+00    rms(broyden)= 0.80800E+00
  rms(prec ) = 0.84140E+00
  weight for this iteration     100.00

 eigenvalues of (default mixing * dielectric matrix)
  average eigenvalue GAMMA=   1.3848
  0.8828  1.8868

 Free energy of the ion-electron system (eV)
  ---------------------------------------------------
  alpha Z        PSCENC =        58.21092976
  Ewald energy   TEWEN  =      4675.31679809
  -Hartree energ DENC   =     -6379.16843066
  -exchange      EXHF   =         0.00000000
  -V(xc)+E(xc)   XCENC  =       193.47834840
  PAW double counting   =      4139.64509245    -4144.16069864
  entropy T*S    EENTRO =        -0.00569206
  eigenvalues    EBANDS =      -546.99225314
  atomic energy  EATOM  =      1903.26342058
  Solvation  Ediel_sol  =         0.00000000
  ---------------------------------------------------
  free energy    TOTEN  =      -100.41248524 eV

  energy without entropy =     -100.40679318  energy(sigma->0) =     -100.40963921


--------------------------------------------------------------------------------------------------------




--------------------------------------- Iteration      1(   8)  ---------------------------------------


    POTLOK:  cpu time      0.0323: real time      0.0336
    SETDIJ:  cpu time      0.0034: real time      0.0035
     EDDAV:  cpu time     10.0885: real time     10.1698
       DOS:  cpu time      0.0010: real time      0.0010
    CHARGE:  cpu time      0.2525: real time      0.2609
    MIXING:  cpu time      0.0008: real time      0.0009
    --------------------------------------------
      LOOP:  cpu time     10.3784: real time     10.4696

 eigenvalue-minimisations  : 24192
 total energy-change (2. order) :-0.1005424E+02  (-0.8908695E+00)
 number of electron      55.9999997 magnetization       2.8271842
 augmentation part        1.0428410 magnetization       2.7302445

 Broyden mixing:
  rms(total) = 0.43375E+00    rms(broyden)= 0.43369E+00
  rms(prec ) = 0.44573E+00
  weight for this iteration     100.00

 eigenvalues of (default mixing * dielectric matrix)
  average eigenvalue GAMMA=   1.3730
  2.3984  1.0612  0.6593

 Free energy of the ion-electron system (eV)
  ---------------------------------------------------
  alpha Z        PSCENC =        58.21092976
  Ewald energy   TEWEN  =      4675.31679809
  -Hartree energ DENC   =     -6428.74222199
  -exchange      EXHF   =         0.00000000
  -V(xc)+E(xc)   XCENC  =       189.37154222
  PAW double counting   =      5591.14859757    -5595.89065627
  entropy T*S    EENTRO =        -0.00002799
  eigenvalues    EBANDS =      -503.14511049
  atomic energy  EATOM  =      1903.26342058
  Solvation  Ediel_sol  =         0.00000000
  ---------------------------------------------------
  free energy    TOTEN  =      -110.46672854 eV

  energy without entropy =     -110.46670055  energy(sigma->0) =     -110.46671454


--------------------------------------------------------------------------------------------------------




--------------------------------------- Iteration      1(   9)  ---------------------------------------


    POTLOK:  cpu time      0.0321: real time      0.0334
    SETDIJ:  cpu time      0.0034: real time      0.0035
     EDDAV:  cpu time      7.8307: real time      7.8916
       DOS:  cpu time      0.0010: real time      0.0010
    CHARGE:  cpu time      0.2526: real time      0.2602
    MIXING:  cpu time      0.0009: real time      0.0009
    --------------------------------------------
      LOOP:  cpu time      8.1206: real time      8.1905

 eigenvalue-minimisations  : 19536
 total energy-change (2. order) :-0.6670386E+01  (-0.3822304E+00)
 number of electron      55.9999997 magnetization       1.4993524
 augmentation part        1.0320843 magnetization       1.4189023

 Broyden mixing:
  rms(total) = 0.27673E+00    rms(broyden)= 0.27669E+00
  rms(prec ) = 0.28999E+00
  weight for this iteration     100.00

 eigenvalues of (default mixing * dielectric matrix)
  average eigenvalue GAMMA=   1.4493
  2.5929  1.7341  0.8597  0.6104

 Free energy of the ion-electron system (eV)
  ---------------------------------------------------
  alpha Z        PSCENC =        58.21092976
  Ewald energy   TEWEN  =      4675.31679809
  -Hartree energ DENC   =     -6434.78325394
  -exchange      EXHF   =         0.00000000
  -V(xc)+E(xc)   XCENC  =       185.54058853
  PAW double counting   =      5875.64697607    -5880.29017153
  entropy T*S    EENTRO =        -0.00000398
  eigenvalues    EBANDS =      -500.04239820
  atomic energy  EATOM  =      1903.26342058
  Solvation  Ediel_sol  =         0.00000000
  ---------------------------------------------------
  free energy    TOTEN  =      -117.13711464 eV

  energy without entropy =     -117.13711066  energy(sigma->0) =     -117.13711265


--------------------------------------------------------------------------------------------------------




--------------------------------------- Iteration      1(  10)  ---------------------------------------


    POTLOK:  cpu time      0.0314: real time      0.0321
    SETDIJ:  cpu time      0.0033: real time      0.0033
     EDDAV:  cpu time      9.8331: real time      9.8907
       DOS:  cpu time      0.0010: real time      0.0010
    CHARGE:  cpu time      0.2491: real time      0.2598
    MIXING:  cpu time      0.0009: real time      0.0009
    --------------------------------------------
      LOOP:  cpu time     10.1189: real time     10.1879

 eigenvalue-minimisations  : 23904
 total energy-change (2. order) :-0.6323663E+01  (-0.8092854E+00)
 number of electron      55.9999997 magnetization       0.8260139
 augmentation part        1.0231808 magnetization       0.7833616

 Broyden mixing:
  rms(total) = 0.15937E+00    rms(broyden)= 0.15923E+00
  rms(prec ) = 0.17696E+00
  weight for this iteration     100.00

 eigenvalues of (default mixing * dielectric matrix)
  average eigenvalue GAMMA=   1.4823
  2.5356  2.5356  0.8705  0.8705  0.5992

 Free energy of the ion-electron system (eV)
  ---------------------------------------------------
  alpha Z        PSCENC =        58.21092976
  Ewald energy   TEWEN  =      4675.31679809
  -Hartree energ DENC   =     -6432.94683565
  -exchange      EXHF   =         0.00000000
  -V(xc)+E(xc)   XCENC  =       182.01174981
  PAW double counting   =      5920.72257776    -5925.16574695
  entropy T*S    EENTRO =        -0.00060549
  eigenvalues    EBANDS =      -504.87306525
  atomic energy  EATOM  =      1903.26342058
  Solvation  Ediel_sol  =         0.00000000
  ---------------------------------------------------
  free energy    TOTEN  =      -123.46077735 eV

  energy without entropy =     -123.46017186  energy(sigma->0) =     -123.46047461


--------------------------------------------------------------------------------------------------------




--------------------------------------- Iteration      1(  11)  ---------------------------------------


    POTLOK:  cpu time      0.0337: real time      0.0375
    SETDIJ:  cpu time      0.0033: real time      0.0033
     EDDAV:  cpu time     10.2150: real time     10.2924
       DOS:  cpu time      0.0012: real time      0.0012
    CHARGE:  cpu time      0.2549: real time      0.2610
    MIXING:  cpu time      0.0009: real time      0.0009
    --------------------------------------------
      LOOP:  cpu time     10.5091: real time     10.5964

 eigenvalue-minimisations  : 24768
 total energy-change (2. order) :-0.1817343E+01  (-0.2923394E+00)
 number of electron      55.9999997 magnetization       0.3681927
 augmentation part        1.0226199 magnetization       0.3491691

 Broyden mixing:
  rms(total) = 0.99677E-01    rms(broyden)= 0.99563E-01
  rms(prec ) = 0.11290E+00
  weight for this iteration     100.00

 eigenvalues of (default mixing * dielectric matrix)
  average eigenvalue GAMMA=   1.5081
  2.9822  2.3761  1.4100  0.9416  0.7281  0.6107

 Free energy of the ion-electron system (eV)
  ---------------------------------------------------
  alpha Z        PSCENC =        58.21092976
  Ewald energy   TEWEN  =      4675.31679809
  -Hartree energ DENC   =     -6429.59064563
  -exchange      EXHF   =         0.00000000
  -V(xc)+E(xc)   XCENC  =       180.86562794
  PAW double counting   =      5827.11592303    -5831.47539712
  entropy T*S    EENTRO =        -0.00119226
  eigenvalues    EBANDS =      -508.98358480
  atomic energy  EATOM  =      1903.26342058
  Solvation  Ediel_sol  =         0.00000000
  ---------------------------------------------------
  free energy    TOTEN  =      -125.27812042 eV

  energy without entropy =     -125.27692816  energy(sigma->0) =     -125.27752429


--------------------------------------------------------------------------------------------------------




--------------------------------------- Iteration      1(  12)  ---------------------------------------


    POTLOK:  cpu time      0.0320: real time      0.0323
    SETDIJ:  cpu time      0.0034: real time      0.0034
     EDDAV:  cpu time      7.7360: real time      7.7976
       DOS:  cpu time      0.0010: real time      0.0010
    CHARGE:  cpu time      0.2521: real time      0.2598
    MIXING:  cpu time      0.0009: real time      0.0009
    --------------------------------------------
      LOOP:  cpu time      8.0255: real time      8.0951

 eigenvalue-minimisations  : 19440
 total energy-change (2. order) :-0.1556717E+00  (-0.2218508E-01)
 number of electron      55.9999997 magnetization       0.1202459
 augmentation part        1.0244119 magnetization       0.1113501

 Broyden mixing:
  rms(total) = 0.47238E-01    rms(broyden)= 0.47210E-01
  rms(prec ) = 0.52110E-01
  weight for this iteration     100.00

 eigenvalues of (default mixing * dielectric matrix)
  average eigenvalue GAMMA=   1.5591
  3.5794  2.1119  2.1119  0.8879  0.8879  0.6068  0.7281

 Free energy of the ion-electron system (eV)
  ---------------------------------------------------
  alpha Z        PSCENC =        58.21092976
  Ewald energy   TEWEN  =      4675.31679809
  -Hartree energ DENC   =     -6428.57687766
  -exchange      EXHF   =         0.00000000
  -V(xc)+E(xc)   XCENC  =       180.50724503
  PAW double counting   =      5762.25758680    -5766.62664938
  entropy T*S    EENTRO =        -0.00148246
  eigenvalues    EBANDS =      -509.78476287
  atomic energy  EATOM  =      1903.26342058
  Solvation  Ediel_sol  =         0.00000000
  ---------------------------------------------------
  free energy    TOTEN  =      -125.43379212 eV

  energy without entropy =     -125.43230966  energy(sigma->0) =     -125.43305089


--------------------------------------------------------------------------------------------------------




--------------------------------------- Iteration      1(  13)  ---------------------------------------


    POTLOK:  cpu time      0.0300: real time      0.0311
    SETDIJ:  cpu time      0.0025: real time      0.0033
     EDDAV:  cpu time      7.1993: real time      7.2527
       DOS:  cpu time      0.0010: real time      0.0010
    CHARGE:  cpu time      0.2519: real time      0.2603
    MIXING:  cpu time      0.0010: real time      0.0010
    --------------------------------------------
      LOOP:  cpu time      7.4858: real time      7.5495

 eigenvalue-minimisations  : 18144
 total energy-change (2. order) :-0.2639363E-01  (-0.2321610E-02)
 number of electron      55.9999997 magnetization       0.0352289
 augmentation part        1.0243535 magnetization       0.0325333

 Broyden mixing:
  rms(total) = 0.19041E-01    rms(broyden)= 0.19036E-01
  rms(prec ) = 0.22971E-01
  weight for this iteration     100.00

 eigenvalues of (default mixing * dielectric matrix)
  average eigenvalue GAMMA=   1.5847
  3.9463  2.3159  2.3159  0.9702  0.9110  0.9110  0.6131  0.6938

 Free energy of the ion-electron system (eV)
  ---------------------------------------------------
  alpha Z        PSCENC =        58.21092976
  Ewald energy   TEWEN  =      4675.31679809
  -Hartree energ DENC   =     -6429.36056957
  -exchange      EXHF   =         0.00000000
  -V(xc)+E(xc)   XCENC  =       180.44088620
  PAW double counting   =      5748.14560400    -5752.53890544
  entropy T*S    EENTRO =        -0.00155891
  eigenvalues    EBANDS =      -508.93679044
  atomic energy  EATOM  =      1903.26342058
  Solvation  Ediel_sol  =         0.00000000
  ---------------------------------------------------
  free energy    TOTEN  =      -125.46018575 eV

  energy without entropy =     -125.45862684  energy(sigma->0) =     -125.45940629


--------------------------------------------------------------------------------------------------------




--------------------------------------- Iteration      1(  14)  ---------------------------------------


    POTLOK:  cpu time      0.0298: real time      0.0315
    SETDIJ:  cpu time      0.0032: real time      0.0034
     EDDAV:  cpu time      8.1107: real time      8.1646
       DOS:  cpu time      0.0010: real time      0.0010
    CHARGE:  cpu time      0.2486: real time      0.2593
    MIXING:  cpu time      0.0010: real time      0.0010
    --------------------------------------------
      LOOP:  cpu time      8.3943: real time      8.4609

 eigenvalue-minimisations  : 20304
 total energy-change (2. order) :-0.2303442E-01  (-0.6116375E-03)
 number of electron      55.9999997 magnetization       0.0021580
 augmentation part        1.0244840 magnetization       0.0010596

 Broyden mixing:
  rms(total) = 0.84696E-02    rms(broyden)= 0.84679E-02
  rms(prec ) = 0.12237E-01
  weight for this iteration     100.00

 eigenvalues of (default mixing * dielectric matrix)
  average eigenvalue GAMMA=   1.5608
  4.1143  2.3221  2.3221  1.3513  0.9291  0.9291  0.7917  0.6171  0.6702

 Free energy of the ion-electron system (eV)
  ---------------------------------------------------
  alpha Z        PSCENC =        58.21092976
  Ewald energy   TEWEN  =      4675.31679809
  -Hartree energ DENC   =     -6429.64104146
  -exchange      EXHF   =         0.00000000
  -V(xc)+E(xc)   XCENC  =       180.38461158
  PAW double counting   =      5725.65233369    -5730.05341765
  entropy T*S    EENTRO =        -0.00156408
  eigenvalues    EBANDS =      -508.61529065
  atomic energy  EATOM  =      1903.26342058
  Solvation  Ediel_sol  =         0.00000000
  ---------------------------------------------------
  free energy    TOTEN  =      -125.48322016 eV

  energy without entropy =     -125.48165608  energy(sigma->0) =     -125.48243812


--------------------------------------------------------------------------------------------------------




--------------------------------------- Iteration      1(  15)  ---------------------------------------


    POTLOK:  cpu time      0.0305: real time      0.0313
    SETDIJ:  cpu time      0.0081: real time      0.0081
     EDDAV:  cpu time      7.8946: real time      7.9428
       DOS:  cpu time      0.0012: real time      0.0012
    CHARGE:  cpu time      0.2482: real time      0.2610
    MIXING:  cpu time      0.0010: real time      0.0010
    --------------------------------------------
      LOOP:  cpu time      8.1837: real time      8.2455

 eigenvalue-minimisations  : 19584
 total energy-change (2. order) :-0.7760740E-02  (-0.3157508E-03)
 number of electron      55.9999997 magnetization      -0.0051201
 augmentation part        1.0245612 magnetization      -0.0052685

 Broyden mixing:
  rms(total) = 0.44401E-02    rms(broyden)= 0.44393E-02
  rms(prec ) = 0.79216E-02
  weight for this iteration     100.00

 eigenvalues of (default mixing * dielectric matrix)
  average eigenvalue GAMMA=   1.5624
  4.2006  2.3135  2.3135  2.0176  0.9718  0.9099  0.9099  0.7352  0.6261  0.6261

 Free energy of the ion-electron system (eV)
  ---------------------------------------------------
  alpha Z        PSCENC =        58.21092976
  Ewald energy   TEWEN  =      4675.31679809
  -Hartree energ DENC   =     -6430.08175249
  -exchange      EXHF   =         0.00000000
  -V(xc)+E(xc)   XCENC  =       180.36463110
  PAW double counting   =      5714.91409283    -5719.31631486
  entropy T*S    EENTRO =        -0.00156483
  eigenvalues    EBANDS =      -508.16122107
  atomic energy  EATOM  =      1903.26342058
  Solvation  Ediel_sol  =         0.00000000
  ---------------------------------------------------
  free energy    TOTEN  =      -125.49098090 eV

  energy without entropy =     -125.48941608  energy(sigma->0) =     -125.49019849


--------------------------------------------------------------------------------------------------------




--------------------------------------- Iteration      1(  16)  ---------------------------------------


    POTLOK:  cpu time      0.0317: real time      0.0323
    SETDIJ:  cpu time      0.0034: real time      0.0034
     EDDAV:  cpu time      6.4444: real time      6.4886
       DOS:  cpu time      0.0010: real time      0.0010
    CHARGE:  cpu time      0.2493: real time      0.2609
    MIXING:  cpu time      0.0010: real time      0.0010
    --------------------------------------------
      LOOP:  cpu time      6.7307: real time      6.7872

 eigenvalue-minimisations  : 16320
 total energy-change (2. order) :-0.1999860E-02  (-0.6384863E-04)
 number of electron      55.9999997 magnetization      -0.0067557
 augmentation part        1.0244256 magnetization      -0.0067087

 Broyden mixing:
  rms(total) = 0.22345E-02    rms(broyden)= 0.22342E-02
  rms(prec ) = 0.53854E-02
  weight for this iteration     100.00

 eigenvalues of (default mixing * dielectric matrix)
  average eigenvalue GAMMA=   1.5578
  4.2337  2.4036  2.4036  2.2163  1.1775  0.9380  0.9380  0.8634  0.7104  0.6255
  0.6255

 Free energy of the ion-electron system (eV)
  ---------------------------------------------------
  alpha Z        PSCENC =        58.21092976
  Ewald energy   TEWEN  =      4675.31679809
  -Hartree energ DENC   =     -6430.72813400
  -exchange      EXHF   =         0.00000000
  -V(xc)+E(xc)   XCENC  =       180.36783372
  PAW double counting   =      5714.22092817    -5718.62410282
  entropy T*S    EENTRO =        -0.00156485
  eigenvalues    EBANDS =      -507.51908939
  atomic energy  EATOM  =      1903.26342058
  Solvation  Ediel_sol  =         0.00000000
  ---------------------------------------------------
  free energy    TOTEN  =      -125.49298076 eV

  energy without entropy =     -125.49141591  energy(sigma->0) =     -125.49219834


--------------------------------------------------------------------------------------------------------




--------------------------------------- Iteration      1(  17)  ---------------------------------------


    POTLOK:  cpu time      0.0294: real time      0.0298
    SETDIJ:  cpu time      0.0034: real time      0.0034
     EDDAV:  cpu time      5.8482: real time      5.8887
       DOS:  cpu time      0.0010: real time      0.0010
    CHARGE:  cpu time      0.2438: real time      0.2603
    MIXING:  cpu time      0.0011: real time      0.0011
    --------------------------------------------
      LOOP:  cpu time      6.1269: real time      6.1842

 eigenvalue-minimisations  : 15072
 total energy-change (2. order) :-0.1270656E-02  (-0.1748099E-04)
 number of electron      55.9999997 magnetization      -0.0065974
 augmentation part        1.0243232 magnetization      -0.0064913

 Broyden mixing:
  rms(total) = 0.17097E-02    rms(broyden)= 0.17096E-02
  rms(prec ) = 0.35653E-02
  weight for this iteration     100.00

 eigenvalues of (default mixing * dielectric matrix)
  average eigenvalue GAMMA=   1.5526
  4.2705  2.5137  2.3780  2.3780  1.5590  1.0324  0.9049  0.9049  0.7632  0.6745
  0.6169  0.6357

 Free energy of the ion-electron system (eV)
  ---------------------------------------------------
  alpha Z        PSCENC =        58.21092976
  Ewald energy   TEWEN  =      4675.31679809
  -Hartree energ DENC   =     -6431.48910710
  -exchange      EXHF   =         0.00000000
  -V(xc)+E(xc)   XCENC  =       180.36844991
  PAW double counting   =      5713.62582400    -5718.02954730
  entropy T*S    EENTRO =        -0.00156484
  eigenvalues    EBANDS =      -506.75945452
  atomic energy  EATOM  =      1903.26342058
  Solvation  Ediel_sol  =         0.00000000
  ---------------------------------------------------
  free energy    TOTEN  =      -125.49425142 eV

  energy without entropy =     -125.49268658  energy(sigma->0) =     -125.49346900


--------------------------------------------------------------------------------------------------------




--------------------------------------- Iteration      1(  18)  ---------------------------------------


    POTLOK:  cpu time      0.0302: real time      0.0306
    SETDIJ:  cpu time      0.0035: real time      0.0034
     EDDAV:  cpu time      6.5587: real time      6.6034
       DOS:  cpu time      0.0010: real time      0.0010
    CHARGE:  cpu time      0.2475: real time      0.2572
    MIXING:  cpu time      0.0011: real time      0.0011
    --------------------------------------------
      LOOP:  cpu time      6.8420: real time      6.8967

 eigenvalue-minimisations  : 16560
 total energy-change (2. order) :-0.6972104E-03  (-0.8262895E-05)
[...]
      3     -17.6777      1.00000
      4     -16.7297      1.00000
      5     -14.7644      1.00000
      6     -14.3891      1.00000
      7     -13.6226      1.00000
      8     -12.6619      1.00000
      9     -10.9127      1.00000
     10      -9.6301      1.00000
     11      -8.9560      1.00000
     12      -8.9279      1.00000
     13      -8.3772      1.00000
     14      -8.0225      1.00000
     15      -7.4592      1.00000
     16      -7.4041      1.00000
     17      -6.6511      1.00000
     18      -6.5193      1.00000
     19      -6.1238      1.00000
     20      -5.9941      1.00000
     21      -5.9356      1.00000
     22      -5.5206      1.00000
     23      -5.4707      1.00000
     24      -5.1929      1.00000
     25      -4.0121      1.00000
     26      -3.6451      1.00000
     27      -3.0832      1.00000
     28      -1.0179      1.00000
     29       0.3651      0.00000
     30       2.2710      0.00000
     31       3.7308      0.00000
     32       3.7583      0.00000
     33       4.5433      0.00000
     34       4.6467      0.00000
     35       4.8407      0.00000
     36       5.1079      0.00000
     37       5.3720      0.00000
     38       5.6423      0.00000
     39       5.8300      0.00000
     40       6.2296      0.00000
     41       6.3305      0.00000
     42       6.4678      0.00000
     43       6.6856      0.00000
     44       6.9168      0.00000
     45       7.1188      0.00000
     46       7.3294      0.00000
     47       7.4053      0.00000
     48       7.9884      0.00000

 k-point    71 :      -0.3333   -0.4167    0.0000
  band No.  band energies     occupation 
      1     -18.6670      1.00000
      2     -18.1702      1.00000
      3     -17.6777      1.00000
      4     -16.7297      1.00000
      5     -14.7641      1.00000
      6     -14.3895      1.00000
      7     -13.6228      1.00000
      8     -12.6613      1.00000
      9     -10.9130      1.00000
     10      -9.6298      1.00000
     11      -8.9563      1.00000
     12      -8.9279      1.00000
     13      -8.3767      1.00000
     14      -8.0234      1.00000
     15      -7.4588      1.00000
     16      -7.4050      1.00000
     17      -6.6517      1.00000
     18      -6.5190      1.00000
     19      -6.1228      1.00000
     20      -5.9945      1.00000
     21      -5.9330      1.00000
     22      -5.5235      1.00000
     23      -5.4693      1.00000
     24      -5.1930      1.00000
     25      -4.0124      1.00000
     26      -3.6452      1.00000
     27      -3.0829      1.00000
     28      -1.0188      1.00000
     29       0.3666      0.00000
     30       2.2705      0.00000
     31       3.7240      0.00000
     32       3.7622      0.00000
     33       4.5415      0.00000
     34       4.6497      0.00000
     35       4.8383      0.00000
     36       5.1080      0.00000
     37       5.3775      0.00000
     38       5.6463      0.00000
     39       5.8257      0.00000
     40       6.2233      0.00000
     41       6.3345      0.00000
     42       6.4724      0.00000
     43       6.6929      0.00000
     44       6.9053      0.00000
     45       7.1140      0.00000
     46       7.3283      0.00000
     47       7.4119      0.00000
     48       7.9892      0.00000

 k-point    72 :       0.2500    0.3333    0.0000
  band No.  band energies     occupation 
      1     -18.6671      1.00000
      2     -18.1703      1.00000
      3     -17.6776      1.00000
      4     -16.7296      1.00000
      5     -14.7655      1.00000
      6     -14.3881      1.00000
      7     -13.6235      1.00000
      8     -12.6597      1.00000
      9     -10.9142      1.00000
     10      -9.6294      1.00000
     11      -8.9541      1.00000
     12      -8.9288      1.00000
     13      -8.3786      1.00000
     14      -8.0229      1.00000
     15      -7.4614      1.00000
     16      -7.4073      1.00000
     17      -6.6494      1.00000
     18      -6.5188      1.00000
     19      -6.1202      1.00000
     20      -5.9914      1.00000
     21      -5.9352      1.00000
     22      -5.5241      1.00000
     23      -5.4704      1.00000
     24      -5.1932      1.00000
     25      -4.0115      1.00000
     26      -3.6464      1.00000
     27      -3.0814      1.00000
     28      -1.0232      1.00000
     29       0.3735      0.00000
     30       2.2716      0.00000
     31       3.7200      0.00000
     32       3.7594      0.00000
     33       4.5408      0.00000
     34       4.6544      0.00000
     35       4.8356      0.00000
     36       5.1089      0.00000
     37       5.3794      0.00000
     38       5.6452      0.00000
     39       5.8259      0.00000
     40       6.2198      0.00000
     41       6.3388      0.00000
     42       6.4698      0.00000
     43       6.6925      0.00000
     44       6.9045      0.00000
     45       7.1177      0.00000
     46       7.3315      0.00000
     47       7.4067      0.00000
     48       7.9872      0.00000

 k-point    73 :      -0.4167   -0.2500    0.0000
  band No.  band energies     occupation 
      1     -18.6670      1.00000
      2     -18.1703      1.00000
      3     -17.6776      1.00000
      4     -16.7296      1.00000
      5     -14.7656      1.00000
      6     -14.3880      1.00000
      7     -13.6228      1.00000
      8     -12.6614      1.00000
      9     -10.9130      1.00000
     10      -9.6302      1.00000
     11      -8.9544      1.00000
     12      -8.9279      1.00000
     13      -8.3788      1.00000
     14      -8.0224      1.00000
     15      -7.4610      1.00000
     16      -7.4046      1.00000
     17      -6.6492      1.00000
     18      -6.5192      1.00000
     19      -6.1232      1.00000
     20      -5.9938      1.00000
     21      -5.9357      1.00000
     22      -5.5211      1.00000
     23      -5.4708      1.00000
     24      -5.1928      1.00000
     25      -4.0118      1.00000
     26      -3.6458      1.00000
     27      -3.0825      1.00000
     28      -1.0199      1.00000
     29       0.3675      0.00000
     30       2.2740      0.00000
     31       3.7226      0.00000
     32       3.7611      0.00000
     33       4.5443      0.00000
     34       4.6475      0.00000
     35       4.8396      0.00000
     36       5.1060      0.00000
     37       5.3804      0.00000
     38       5.6407      0.00000
     39       5.8298      0.00000
     40       6.2189      0.00000
     41       6.3328      0.00000
     42       6.4678      0.00000
     43       6.6858      0.00000
     44       6.9270      0.00000
     45       7.1124      0.00000
     46       7.3287      0.00000
     47       7.4055      0.00000
     48       7.9876      0.00000

 k-point    74 :       0.3333    0.3333    0.0000
  band No.  band energies     occupation 
      1     -18.2170      1.00000
      2     -18.2096      1.00000
      3     -18.2084      1.00000
      4     -16.7004      1.00000
      5     -14.6220      1.00000
      6     -14.6200      1.00000
      7     -13.0344      1.00000
      8     -13.0326      1.00000
      9     -11.2139      1.00000
     10      -9.1768      1.00000
     11      -9.1755      1.00000
     12      -8.2038      1.00000
     13      -8.1215      1.00000
     14      -8.1189      1.00000
     15      -8.1157      1.00000
     16      -6.8457      1.00000
     17      -6.8428      1.00000
     18      -6.8412      1.00000
     19      -6.1124      1.00000
     20      -5.9279      1.00000
     21      -5.9261      1.00000
     22      -5.7487      1.00000
     23      -5.7445      1.00000
     24      -5.2342      1.00000
     25      -3.9134      1.00000
     26      -3.4635      1.00000
     27      -3.4620      1.00000
     28      -0.3188      0.51933
     29      -0.3120      0.48067
     30       2.6248      0.00000
     31       3.6762      0.00000
     32       4.0119      0.00000
     33       4.0261      0.00000
     34       4.5924      0.00000
     35       4.5948      0.00000
     36       5.4492      0.00000
     37       5.7456      0.00000
     38       5.7468      0.00000
     39       6.2203      0.00000
     40       6.3674      0.00000
     41       6.3725      0.00000
     42       6.3792      0.00000
     43       6.4385      0.00000
     44       6.4426      0.00000
     45       6.9623      0.00000
     46       7.3221      0.00000
     47       7.4003      0.00000
     48       7.4010      0.00000


--------------------------------------------------------------------------------------------------------


 soft charge-density along one line, spin component           1
         0         1         2         3         4         5         6         7         8         9
 total charge-density along one line
 
 soft charge-density along one line, spin component           2
         0         1         2         3         4         5         6         7         8         9
 total charge-density along one line
 
 pseudopotential strength for first ion, spin component:           1
  6.786  10.358  -0.000  -0.001   0.000  -0.000  -0.001   0.000
 10.358  15.806  -0.000  -0.001   0.000  -0.000  -0.002   0.000
 -0.000  -0.000  -2.352   0.000  -0.000  -4.045   0.000  -0.000
 -0.001  -0.001   0.000  -2.344   0.000   0.000  -4.028   0.000
  0.000   0.000  -0.000   0.000  -2.352  -0.000   0.000  -4.045
 -0.000  -0.000  -4.045   0.000  -0.000  -6.761   0.000  -0.000
 -0.001  -0.002   0.000  -4.028   0.000   0.000  -6.725   0.000
  0.000   0.000  -0.000   0.000  -4.045  -0.000   0.000  -6.761
 pseudopotential strength for first ion, spin component:           2
  6.786  10.358  -0.000  -0.001   0.000  -0.000  -0.001   0.000
 10.358  15.806  -0.000  -0.001   0.000  -0.000  -0.002   0.000
 -0.000  -0.000  -2.352   0.000  -0.000  -4.045   0.000  -0.000
 -0.001  -0.001   0.000  -2.344   0.000   0.000  -4.028   0.000
  0.000   0.000  -0.000   0.000  -2.352  -0.000   0.000  -4.045
 -0.000  -0.000  -4.045   0.000  -0.000  -6.761   0.000  -0.000
 -0.001  -0.002   0.000  -4.028   0.000   0.000  -6.725   0.000
  0.000   0.000  -0.000   0.000  -4.045  -0.000   0.000  -6.761
 total augmentation occupancy for first ion, spin component:           1
  3.857  -1.137  -0.000  -0.095  -0.004   0.000   0.039   0.001
 -1.137   0.354   0.000   0.045   0.001  -0.000  -0.015  -0.000
 -0.000   0.000   4.407  -0.002   0.002  -1.318   0.001  -0.001
 -0.095   0.045  -0.002   1.825  -0.003   0.001  -0.388   0.001
 -0.004   0.001   0.002  -0.003   4.407  -0.001   0.001  -1.318
  0.000  -0.000  -1.318   0.001  -0.001   0.403  -0.000   0.000
  0.039  -0.015   0.001  -0.388   0.001  -0.000   0.084  -0.000
  0.001  -0.000  -0.001   0.001  -1.318   0.000  -0.000   0.403
 total augmentation occupancy for first ion, spin component:           2
 -0.000   0.000  -0.000  -0.000  -0.000   0.000   0.000   0.000
  0.000  -0.000   0.000   0.000   0.000  -0.000  -0.000  -0.000
 -0.000   0.000  -0.000   0.000  -0.000   0.000  -0.000   0.000
 -0.000   0.000   0.000   0.000  -0.000  -0.000  -0.000   0.000
 -0.000   0.000  -0.000  -0.000  -0.000   0.000   0.000   0.000
  0.000  -0.000   0.000  -0.000   0.000  -0.000   0.000  -0.000
  0.000  -0.000  -0.000  -0.000   0.000   0.000   0.000  -0.000
  0.000  -0.000   0.000   0.000   0.000  -0.000  -0.000  -0.000


------------------------ aborting loop because EDIFF is reached ----------------------------------------


    CHARGE:  cpu time      0.2541: real time      0.2653
    FORLOC:  cpu time      0.0015: real time      0.0015
    FORNL :  cpu time      0.7157: real time      0.7183
    STRESS:  cpu time      3.2589: real time      3.2696
    FORCOR:  cpu time      0.0246: real time      0.0247
    FORHAR:  cpu time      0.0036: real time      0.0036
    MIXING:  cpu time      0.0006: real time      0.0006
    OFIELD:  cpu time      0.0000: real time      0.0000

 ---------------------------------------------------------------------------------------------

         DFTD3 V3.0 Rev 1        
 Edisp (eV)   -1.58366

 E6    (eV) :    -1.0940
 E8    (eV) :    -0.4896
 % E8        : 30.92
    FORVDW:  cpu time      0.0382: real time      0.0383

  FORCE on cell =-STRESS in cart. coord.  units (eV):
  Direction    XX          YY          ZZ          XY          YZ          ZX
  --------------------------------------------------------------------------------------
  Alpha Z    58.21093    58.21093    58.21093
  Ewald    6432.88394  6433.11695 -8188.70403     0.02168    -0.12474    -0.17320
  Hartree  6351.07242  6351.12664 -6268.26736    -0.00301    -0.04433    -0.05703
  E(xc)    -201.65649  -201.65543  -208.71599    -0.00005    -0.00032     0.00080
  Local  -13375.19580-13375.43271 13745.84780    -0.01861     0.15736     0.20682
  n-local   -43.11069   -43.10946   -42.54606     0.00064     0.00078     0.00493
  augment    -4.10786    -4.10826    -3.66805     0.00002    -0.00000    -0.00004
  Kinetic   781.11410   781.06562   908.59789    -0.00077     0.00883    -0.03799
  Fock        0.00000     0.00000     0.00000     0.00000     0.00000     0.00000
  vdW        -0.39333    -0.39323    -1.11099     0.00000    -0.00000     0.00033
  -------------------------------------------------------------------------------------
  Total      -1.18279    -1.17896    -0.35587    -0.00009    -0.00243    -0.05539
  in kB      -6.20171    -6.18165    -1.86592    -0.00047    -0.01272    -0.29040
  external pressure =       -4.75 kB  Pullay stress =        0.00 kB


 VOLUME and BASIS-vectors are now :
 -----------------------------------------------------------------------------
  energy-cutoff  :      450.00
  volume of cell :      305.57
      direct lattice vectors                 reciprocal lattice vectors
     4.200223208  2.425000000  0.000000000     0.119041293  0.206185567  0.000000000
    -4.200223208  2.425000000  0.000000000    -0.119041293  0.206185567  0.000000000
     0.000000000  0.000000000 15.000000000     0.000000000  0.000000000  0.066666667

  length of vectors
     4.850000000  4.850000000 15.000000000     0.238082585  0.238082585  0.066666667


 FORCES acting on ions
    electron-ion (+dipol)            ewald-force                    non-local-force                 convergence-correction
 -----------------------------------------------------------------------------------------------
   -.681E-01 -.384E-01 0.214E+03   0.651E-01 0.381E-01 -.214E+03   0.119E-01 -.176E-02 -.349E+00   0.125E-03 0.162E-03 -.626E-03
   -.197E+02 -.114E+02 0.229E+03   0.225E+02 0.130E+02 -.229E+03   -.271E+01 -.156E+01 0.625E-01   -.467E-03 -.393E-03 -.134E-02
   0.197E+02 -.113E+02 0.228E+03   -.224E+02 0.129E+02 -.228E+03   0.272E+01 -.158E+01 0.651E-01   0.746E-03 -.185E-03 -.141E-02
   0.489E-01 0.228E+02 0.228E+03   -.393E-01 -.260E+02 -.228E+03   -.164E-01 0.314E+01 0.662E-01   0.227E-03 0.649E-03 -.132E-02
   0.212E-01 -.366E+02 0.301E+03   -.223E-02 0.429E+02 -.302E+03   -.102E-01 -.633E+01 0.226E+00   -.440E-03 -.126E-02 -.157E-02
   0.318E+02 0.183E+02 0.300E+03   -.372E+02 -.215E+02 -.301E+03   0.548E+01 0.319E+01 0.142E+00   0.298E-03 0.353E-03 -.125E-02
   -.317E+02 0.183E+02 0.301E+03   0.372E+02 -.214E+02 -.302E+03   -.547E+01 0.315E+01 0.219E+00   -.117E-02 0.583E-03 -.158E-02
   0.505E+00 -.647E+00 -.225E+03   -.504E+00 0.657E+00 0.225E+03   0.156E-02 -.870E-02 0.301E-01   0.143E-02 0.242E-02 -.616E-03
   -.153E+00 -.932E+00 -.226E+03   0.147E+00 0.963E+00 0.226E+03   -.273E-02 -.137E-01 0.196E-01   0.657E-03 0.765E-03 -.481E-03
   -.880E+00 0.473E-01 -.226E+03   0.907E+00 -.442E-01 0.227E+03   -.110E-01 0.361E-02 0.191E-02   -.273E-03 -.916E-03 -.458E-03
   -.370E+00 0.274E-02 -.224E+03   0.377E+00 0.858E-02 0.224E+03   -.339E-02 0.129E-02 0.634E-01   -.491E-03 -.274E-03 -.804E-03
   -.230E+00 -.166E-01 -.224E+03   0.236E+00 0.358E-02 0.224E+03   0.433E-02 0.348E-02 0.555E-01   -.204E-02 -.589E-03 -.708E-03
   0.798E+00 -.181E-01 -.225E+03   -.813E+00 0.860E-02 0.225E+03   -.243E-02 0.111E-01 0.453E-01   0.704E-04 -.241E-02 -.668E-03
   0.487E+00 0.660E+00 -.226E+03   -.498E+00 -.672E+00 0.226E+03   0.115E-01 -.415E-02 0.310E-01   -.130E-02 0.306E-03 -.510E-03
   -.186E+00 0.903E+00 -.226E+03   0.172E+00 -.925E+00 0.226E+03   -.688E-02 0.719E-02 0.220E-01   0.236E-02 0.799E-03 -.560E-03
 -----------------------------------------------------------------------------------------------
   0.546E-02 -.206E-02 -.687E+00   -.244E-14 -.251E-13 -.284E-13   -.531E-02 0.194E-02 0.700E+00   -.274E-03 0.809E-05 -.139E-01
 
 
 POSITION                                       TOTAL-FORCE (eV/Angst)
 -----------------------------------------------------------------------------------
      0.00814      0.01711      1.57021         0.008916     -0.001833     -0.011876
      1.49889      0.87690      1.50981         0.031879      0.019476      0.057002
     -1.48090      0.87778      1.51499        -0.039953      0.014191      0.030087
      0.01006      3.14663      1.51332        -0.006628     -0.041197      0.038345
      0.00936      1.58773      1.52110         0.008289     -0.046329     -0.034797
      2.84944      1.65621      1.52547         0.039047      0.035237     -0.056700
     -2.83112      1.65672      1.52163        -0.025663      0.021117     -0.036591
     -1.16961      1.21231      5.06198         0.004475      0.003689      0.001292
      0.23066      1.21219      5.06385        -0.007870      0.017523      0.003622
     -3.26981      2.42499      5.06334         0.014938      0.005785     -0.003527
     -1.86954      2.42489      5.06151         0.002478      0.012298      0.003284
      0.93051      2.42492      5.06169         0.007695     -0.010134     -0.002495
      2.33079      2.42489      5.06194        -0.017837     -0.000799      0.006870
     -1.16955      3.63747      5.06333        -0.000524     -0.015587      0.001643
      0.23057      3.63743      5.06252        -0.019241     -0.013436      0.003841
 -----------------------------------------------------------------------------------
    total drift:                               -0.000129     -0.000108     -0.000480


--------------------------------------------------------------------------------------------------------



  FREE ENERGIE OF THE ION-ELECTRON SYSTEM (eV)
  ---------------------------------------------------
  free  energy   TOTEN  =      -127.12596460 eV

  energy  without entropy=     -127.12439924  energy(sigma->0) =     -127.12518192
 
 d Force = 0.3489735E-03[ 0.276E-03, 0.422E-03]  d Energy = 0.3497513E-03-0.778E-06
 d Force = 0.1188058E+00[ 0.119E+00, 0.118E+00]  d Ewald  = 0.1188058E+00 0.478E-07


--------------------------------------------------------------------------------------------------------


    POTLOK:  cpu time      0.0366: real time      0.0370


--------------------------------------------------------------------------------------------------------


 stress matrix after NEB project (eV)
     -1.18279     -0.00009     -0.05539
     -0.00009     -1.17896     -0.00243
     -0.05539     -0.00243     -0.35587
  FORCES: max atom, RMS     0.077338    0.040689
  FORCE total and by dimension    0.157587    0.057002
  Stress total and by dimension    1.709303    1.182786
 Conjugate gradient step on ions:
 trial-energy change:   -0.000350  1 .order   -0.000349   -0.000422   -0.000276
  (g-gl).g = 0.210E-02      g.g   = 0.240E-02  gl.gl    = 0.222E-01
 g(Force)  = 0.240E-02   g(Stress)= 0.000E+00 ortho     = 0.127E-03
 gamma     =   0.09488
 trial     =   0.17506
 opt step  =   0.50642  (harmonic =   0.50642) maximal distance =0.00227604
 next E    =  -127.126225   (d E  =  -0.00061)


--------------------------------------------------------------------------------------------------------


    WAVPRE:  cpu time      0.0045: real time      0.0068
    FEWALD:  cpu time      0.0004: real time      0.0004
    ORTHCH:  cpu time      0.3331: real time      0.3347
     LOOP+:  cpu time     30.5754: real time     30.7896
