Lattice                                 
           1
     4.200223    2.425000    0.000000
    -4.200223    2.425000    0.000000
     0.000000    0.000000   15.000000
   B    C 
     4    11
Direct configuration=     1
   0.00415361  0.00267210  0.12034134
   0.35695335  0.00285503  0.09748893
   0.00423858  0.35550699  0.09749256
   0.65142295  0.65006557  0.09747688
   0.32808646  0.32671938  0.10030508
   0.68027775  0.00278085  0.10027562
   0.00416530  0.67883808  0.10026559
   0.11111044  0.38888856  0.33726667
   0.27777744  0.22222156  0.33726667
   0.11111044  0.88888856  0.33726667
   0.27777744  0.72222156  0.33726667
   0.61111044  0.38888856  0.33726667
   0.77777744  0.22222156  0.33726667
   0.61111044  0.88888856  0.33726667
   0.77777744  0.72222156  0.33726667
Direct configuration=     2
   0.00416756  0.00269532  0.11903065
   0.35570053  0.00279235  0.09782935
   0.00418955  0.35448402  0.09788596
   0.65256510  0.65109882  0.09785641
   0.32468604  0.32315720  0.10031324
   0.68394551  0.00279455  0.10032729
   0.00422495  0.68225906  0.10028215
   0.11103887  0.38899134  0.33728010
   0.27791452  0.22234466  0.33735416
   0.11129727  0.88902001  0.33729138
   0.27796872  0.72221863  0.33720553
   0.61107166  0.38883652  0.33720060
   0.77773691  0.22226821  0.33728947
   0.61092648  0.88883872  0.33734295
   0.77741587  0.72207901  0.33729007
Direct configuration=     3
   0.00416069  0.00268388  0.11967647
   0.35631784  0.00282324  0.09766162
   0.00421371  0.35498808  0.09769212
   0.65200232  0.65058970  0.09766940
   0.32636155  0.32491241  0.10030922
   0.68213827  0.00278780  0.10030183
   0.00419556  0.68057342  0.10027399
   0.11107414  0.38894070  0.33727348
   0.27784698  0.22228400  0.33731105
   0.11120521  0.88895524  0.33727920
   0.27787447  0.72222007  0.33723566
   0.61109077  0.38886216  0.33723316
   0.77775688  0.22224522  0.33727823
   0.61101713  0.88886328  0.33730536
   0.77759403  0.72214925  0.33727854
Direct configuration=     4
   0.00416983  0.00272031  0.11849752
   0.35682498  0.00275746  0.09798660
   0.00420971  0.35549318  0.09807102
   0.65156169  0.65001606  0.09803367
   0.32653332  0.32495848  0.10028308
   0.68205803  0.00278325  0.10031771
   0.00424019  0.68044966  0.10025608
   0.11109434  0.38887809  0.33728977
   0.27767625  0.22224774  0.33738538
   0.11097612  0.88885798  0.33730763
   0.27765660  0.72226601  0.33719093
   0.61108898  0.38892500  0.33718715
   0.77773642  0.22222545  0.33729924
   0.61115181  0.88897295  0.33737165
   0.77787130  0.72232683  0.33730192
Direct configuration=     5
   0.00419725  0.00282961  0.11496065
   0.35834640  0.00256011  0.09896153
   0.00419772  0.35700848  0.09920772
   0.65023981  0.64829513  0.09912646
   0.32704862  0.32509668  0.10020465
   0.68181728  0.00276962  0.10036532
   0.00437409  0.68007839  0.10020234
   0.11115493  0.38869028  0.33733865
   0.27716406  0.22213893  0.33760839
   0.11028882  0.88856623  0.33739293
   0.27700298  0.72240382  0.33705675
   0.61108360  0.38911350  0.33704913
   0.77767504  0.22216614  0.33736227
   0.61155586  0.88930196  0.33757050
   0.77870312  0.72285956  0.33737205
Direct configuration=     6
   0.00420378  0.00283361  0.11450269
   0.35848371  0.00254203  0.09906158
   0.00420953  0.35712323  0.09932250
   0.65013668  0.64815257  0.09923714
   0.32715815  0.32517648  0.10022543
   0.68172595  0.00275610  0.10039864
   0.00438563  0.67998260  0.10022589
   0.11109627  0.38879282  0.33734470
   0.27729392  0.22217318  0.33762349
   0.11049342  0.88872474  0.33740280
   0.27718285  0.72239311  0.33705477
   0.61104282  0.38909443  0.33704774
   0.77767312  0.22222291  0.33736840
   0.61137786  0.88920730  0.33758420
   0.77838586  0.72270334  0.33737934
Direct configuration=     7
   0.00422338  0.00284561  0.11312882
   0.35889562  0.00248780  0.09936173
   0.00424494  0.35746748  0.09966685
   0.64982732  0.64772487  0.09956921
   0.32748676  0.32541587  0.10028778
   0.68145196  0.00271553  0.10049859
   0.00442027  0.67969523  0.10029655
   0.11092029  0.38910043  0.33736287
   0.27768353  0.22227594  0.33766882
   0.11110720  0.88920028  0.33743242
   0.27772247  0.72236097  0.33704882
   0.61092048  0.38903722  0.33704360
   0.77766735  0.22239321  0.33738680
   0.61084388  0.88892333  0.33762528
   0.77743409  0.72223469  0.33740120
Direct configuration=     8
   0.00423098  0.00285025  0.11259666
   0.35905518  0.00246679  0.09947799
   0.00425866  0.35760082  0.09980023
   0.64970750  0.64755921  0.09969783
   0.32761404  0.32550860  0.10031193
   0.68134583  0.00269982  0.10053731
   0.00443369  0.67958391  0.10032392
   0.11085213  0.38921958  0.33736990
   0.27783444  0.22231575  0.33768637
   0.11134495  0.88938447  0.33744389
   0.27793149  0.72234853  0.33704651
   0.61087309  0.38901506  0.33704200
   0.77766512  0.22245917  0.33739393
   0.61063704  0.88881333  0.33764119
   0.77706543  0.72205316  0.33740967
Direct configuration=     9
   0.00424818  0.00283142  0.11200084
   0.35906212  0.00245834  0.09956160
   0.00429480  0.35756177  0.09988906
   0.64974305  0.64757125  0.09978494
   0.32770857  0.32559685  0.10039677
   0.68125840  0.00266388  0.10062970
   0.00444120  0.67948918  0.10041082
   0.11085312  0.38920974  0.33737719
   0.27784270  0.22242799  0.33767961
   0.11131555  0.88932623  0.33745304
   0.27793514  0.72236923  0.33707401
   0.61086826  0.38897418  0.33707161
   0.77760935  0.22245764  0.33739835
   0.61063141  0.88885317  0.33763565
   0.77703771  0.72208758  0.33741613
Direct configuration=    10
   0.00429979  0.00277492  0.11021338
   0.35908294  0.00243299  0.09981242
   0.00440321  0.35744463  0.10015555
   0.64984972  0.64760738  0.10004627
   0.32799216  0.32586160  0.10065129
   0.68099612  0.00255606  0.10090686
   0.00446375  0.67920497  0.10067154
   0.11085608  0.38918023  0.33739905
   0.27786749  0.22276474  0.33765933
   0.11122736  0.88915151  0.33748050
   0.27794608  0.72243134  0.33715653
   0.61085375  0.38885155  0.33716046
   0.77744204  0.22245302  0.33741161
   0.61061451  0.88897267  0.33761904
   0.77695455  0.72219083  0.33743551
Direct configuration=    11
   0.00440302  0.00266192  0.10663847
   0.35912459  0.00238230  0.10031406
   0.00462004  0.35721034  0.10068852
   0.65006305  0.64767964  0.10056892
   0.32855935  0.32639110  0.10116033
   0.68047154  0.00234042  0.10146120
   0.00450885  0.67863656  0.10119296
   0.11086202  0.38912121  0.33744276
   0.27791706  0.22343824  0.33761877
   0.11105097  0.88880206  0.33753542
   0.27796797  0.72255555  0.33732155
   0.61082474  0.38860629  0.33733816
   0.77710741  0.22244380  0.33743812
   0.61058071  0.88921168  0.33758582
   0.77678823  0.72239733  0.33747428
Direct configuration=    12
   0.00444429  0.00261701  0.10567250
   0.35914633  0.00237624  0.10046468
   0.00466769  0.35720118  0.10083291
   0.65007008  0.64767233  0.10071495
   0.32858001  0.32639223  0.10129332
   0.68050007  0.00229999  0.10159577
   0.00453268  0.67857582  0.10132791
   0.11078760  0.38916413  0.33745383
   0.27765112  0.22296664  0.33760349
   0.11086691  0.88900355  0.33754710
   0.27768552  0.72250669  0.33737587
   0.61080204  0.38892357  0.33739212
   0.77726944  0.22243338  0.33744794
   0.61070628  0.88928382  0.33757071
   0.77713949  0.72246188  0.33748624
Direct configuration=    13
   0.00448175  0.00257623  0.10479541
   0.35916608  0.00237073  0.10060144
   0.00471095  0.35719285  0.10096401
   0.65007645  0.64766568  0.10084755
   0.32859876  0.32639325  0.10141408
   0.68052598  0.00226328  0.10171795
   0.00455432  0.67852068  0.10145045
   0.11072003  0.38920309  0.33746389
   0.27740966  0.22253842  0.33758961
   0.11069978  0.88918650  0.33755771
   0.27742906  0.72246232  0.33742519
   0.61078144  0.38921166  0.33744111
   0.77741656  0.22242392  0.33745685
   0.61082029  0.88934933  0.33755699
   0.77745845  0.72252049  0.33749710
Direct configuration=    14
   0.00449557  0.00255852  0.10468087
   0.35923368  0.00237340  0.10065389
   0.00469756  0.35727484  0.10099939
   0.64998588  0.64759160  0.10088816
   0.32847994  0.32625260  0.10140657
   0.68068905  0.00228606  0.10169773
   0.00457108  0.67861200  0.10144205
   0.11072984  0.38919324  0.33746543
   0.27739399  0.22247855  0.33759002
   0.11075542  0.88923980  0.33755631
   0.27742516  0.72252898  0.33743422
   0.61075220  0.38921503  0.33744571
   0.77743826  0.22251778  0.33746249
   0.61076960  0.88921898  0.33755533
   0.77743232  0.72253705  0.33750118
