   8   8   1  16
  0.4338553E+02  0.5169000E-09  0.5169000E-09  0.1500000E-08  0.5000000E-15
  1.000000000000000E-004
  CAR 
 Relaxation_HSE06                        
      6.88159734    -23.81150255  301     -4.16632002      1.00000000
    -23.812  0.0000E+00  0.0000E+00
    -23.709  0.0000E+00  0.0000E+00
    -23.607  0.0000E+00  0.0000E+00
    -23.505  0.0000E+00  0.0000E+00
    -23.402  0.0000E+00  0.0000E+00
    -23.300  0.0000E+00  0.0000E+00
    -23.198  0.0000E+00  0.0000E+00
    -23.095  0.0000E+00  0.0000E+00
    -22.993  0.2102E-18  0.2150E-19
    -22.891  0.1456E-13  0.1490E-14
    -22.788  0.1217E-09  0.1245E-10
    -22.686  0.1468E-06  0.1503E-07
    -22.584  0.2729E-04  0.2807E-05
    -22.481  0.8633E-03  0.9113E-04
    -22.379  0.5771E-02  0.6815E-03
    -22.277  0.1214E-01  0.1923E-02
    -22.175  0.1467E-01  0.3424E-02
    -22.072  0.1597E-01  0.5058E-02
    -21.970  0.1894E-01  0.6996E-02
    -21.868  0.2450E-01  0.9503E-02
    -21.765  0.3224E-01  0.1280E-01
    -21.663  0.2219E-01  0.1507E-01
    -21.561  0.5109E-02  0.1560E-01
    -21.458  0.2894E-03  0.1562E-01
    -21.356  0.3210E-05  0.1562E-01
    -21.254  0.5696E-08  0.1562E-01
    -21.151  0.1419E-11  0.1562E-01
    -21.049  0.4624E-16  0.1562E-01
    -20.947  0.0000E+00  0.1562E-01
    -20.845  0.0000E+00  0.1562E-01
    -20.742  0.0000E+00  0.1562E-01
    -20.640  0.0000E+00  0.1562E-01
    -20.538  0.0000E+00  0.1562E-01
    -20.435  0.2648E-16  0.1563E-01
    -20.333  0.9911E-12  0.1563E-01
    -20.231  0.4768E-08  0.1563E-01
    -20.128  0.3056E-05  0.1563E-01
    -20.026  0.2747E-03  0.1565E-01
    -19.924  0.3952E-02  0.1606E-01
    -19.821  0.1361E-01  0.1745E-01
    -19.719  0.2219E-01  0.1972E-01
    -19.617  0.2281E-01  0.2205E-01
    -19.514  0.1733E-01  0.2383E-01
    -19.412  0.1291E-01  0.2515E-01
    -19.310  0.1477E-01  0.2666E-01
    -19.208  0.1308E-01  0.2800E-01
    -19.105  0.1152E-01  0.2918E-01
    -19.003  0.1732E-01  0.3095E-01
    -18.901  0.1918E-01  0.3291E-01
    -18.798  0.1332E-01  0.3427E-01
    -18.696  0.2417E-01  0.3675E-01
    -18.594  0.2726E-01  0.3953E-01
    -18.491  0.2224E-01  0.4181E-01
    -18.389  0.1616E-01  0.4346E-01
    -18.287  0.1432E-01  0.4493E-01
    -18.184  0.1206E-01  0.4616E-01
    -18.082  0.5701E-02  0.4675E-01
    -17.980  0.1208E-02  0.4687E-01
    -17.878  0.6108E-04  0.4687E-01
    -17.775  0.5616E-06  0.4687E-01
    -17.673  0.7963E-09  0.4687E-01
    -17.571  0.1566E-12  0.4688E-01
    -17.468  0.3924E-17  0.4688E-01
    -17.366  0.0000E+00  0.4688E-01
    -17.264  0.0000E+00  0.4688E-01
    -17.161  0.0000E+00  0.4688E-01
    -17.059  0.0000E+00  0.4688E-01
    -16.957  0.0000E+00  0.4688E-01
    -16.854  0.0000E+00  0.4688E-01
    -16.752  0.0000E+00  0.4688E-01
    -16.650  0.2718E-16  0.4688E-01
    -16.547  0.9010E-12  0.4688E-01
    -16.445  0.3869E-08  0.4688E-01
    -16.343  0.2215E-05  0.4688E-01
    -16.241  0.1805E-03  0.4689E-01
    -16.138  0.2432E-02  0.4714E-01
    -16.036  0.7541E-02  0.4791E-01
    -15.934  0.1311E-01  0.4925E-01
    -15.831  0.2076E-01  0.5138E-01
    -15.729  0.1869E-01  0.5329E-01
    -15.627  0.1801E-01  0.5513E-01
    -15.524  0.2082E-01  0.5726E-01
    -15.422  0.2662E-01  0.5999E-01
    -15.320  0.1556E-01  0.6158E-01
    -15.217  0.6150E-02  0.6221E-01
    -15.115  0.6234E-02  0.6284E-01
    -15.013  0.9648E-02  0.6383E-01
    -14.911  0.1410E-01  0.6527E-01
    -14.808  0.1288E-01  0.6659E-01
    -14.706  0.5723E-02  0.6718E-01
    -14.604  0.2642E-02  0.6745E-01
    -14.501  0.1122E-01  0.6860E-01
    -14.399  0.2511E-01  0.7116E-01
    -14.297  0.1486E-01  0.7268E-01
    -14.194  0.5501E-02  0.7325E-01
    -14.092  0.1059E-01  0.7433E-01
    -13.990  0.1448E-01  0.7581E-01
    -13.887  0.1336E-01  0.7718E-01
    -13.785  0.9431E-02  0.7814E-01
    -13.683  0.1021E-01  0.7919E-01
    -13.580  0.1013E-01  0.8023E-01
    -13.478  0.3203E-02  0.8055E-01
    -13.376  0.3237E-03  0.8059E-01
    -13.274  0.1948E-02  0.8079E-01
    -13.171  0.7622E-02  0.8157E-01
    -13.069  0.6340E-02  0.8221E-01
    -12.967  0.4694E-02  0.8269E-01
    -12.864  0.2716E-02  0.8297E-01
    -12.762  0.1456E-02  0.8312E-01
    -12.660  0.3778E-02  0.8351E-01
    -12.557  0.4171E-02  0.8393E-01
    -12.455  0.1058E-01  0.8502E-01
    -12.353  0.1562E-01  0.8662E-01
    -12.250  0.1187E-01  0.8783E-01
    -12.148  0.1052E-01  0.8891E-01
    -12.046  0.1238E-01  0.9017E-01
    -11.944  0.1051E-01  0.9125E-01
    -11.841  0.7069E-02  0.9197E-01
    -11.739  0.1695E-01  0.9371E-01
    -11.637  0.2223E-01  0.9598E-01
    -11.534  0.1102E-01  0.9711E-01
    -11.432  0.9237E-02  0.9805E-01
    -11.330  0.1977E-01  0.1001E+00
    -11.227  0.1866E-01  0.1020E+00
    -11.125  0.7217E-02  0.1027E+00
    -11.023  0.9180E-02  0.1037E+00
    -10.920  0.1605E-01  0.1053E+00
    -10.818  0.2616E-01  0.1080E+00
    -10.716  0.2059E-01  0.1101E+00
    -10.613  0.7981E-02  0.1109E+00
    -10.511  0.9884E-02  0.1119E+00
    -10.409  0.1725E-01  0.1137E+00
    -10.307  0.1779E-01  0.1155E+00
    -10.204  0.1747E-01  0.1173E+00
    -10.102  0.1844E-01  0.1192E+00
    -10.000  0.1494E-01  0.1207E+00
     -9.897  0.1369E-01  0.1221E+00
     -9.795  0.1352E-01  0.1235E+00
     -9.693  0.1462E-01  0.1250E+00
     -9.590  0.1556E-01  0.1266E+00
     -9.488  0.9964E-02  0.1276E+00
     -9.386  0.1653E-01  0.1293E+00
     -9.283  0.2115E-01  0.1315E+00
     -9.181  0.1611E-01  0.1331E+00
     -9.079  0.2990E-01  0.1362E+00
     -8.977  0.3266E-01  0.1395E+00
     -8.874  0.2541E-01  0.1421E+00
     -8.772  0.2265E-01  0.1444E+00
     -8.670  0.2184E-01  0.1467E+00
     -8.567  0.2291E-01  0.1490E+00
     -8.465  0.2788E-01  0.1518E+00
     -8.363  0.2039E-01  0.1539E+00
     -8.260  0.2103E-01  0.1561E+00
     -8.158  0.1615E-01  0.1577E+00
     -8.056  0.9400E-02  0.1587E+00
     -7.953  0.8159E-02  0.1595E+00
     -7.851  0.1393E-01  0.1610E+00
     -7.749  0.1451E-01  0.1624E+00
     -7.646  0.1990E-01  0.1645E+00
     -7.544  0.3871E-01  0.1684E+00
     -7.442  0.4381E-01  0.1729E+00
     -7.340  0.3050E-01  0.1760E+00
     -7.237  0.2526E-01  0.1786E+00
     -7.135  0.2240E-01  0.1809E+00
     -7.033  0.2882E-01  0.1839E+00
     -6.930  0.2159E-01  0.1861E+00
     -6.828  0.1201E-01  0.1873E+00
     -6.726  0.1536E-01  0.1889E+00
     -6.623  0.2168E-01  0.1911E+00
     -6.521  0.1726E-01  0.1929E+00
     -6.419  0.2385E-01  0.1953E+00
     -6.316  0.1630E-01  0.1970E+00
     -6.214  0.1468E-01  0.1985E+00
     -6.112  0.2418E-01  0.2009E+00
     -6.010  0.2219E-01  0.2032E+00
     -5.907  0.2683E-01  0.2060E+00
     -5.805  0.3018E-01  0.2090E+00
     -5.703  0.2439E-01  0.2115E+00
     -5.600  0.1938E-01  0.2135E+00
     -5.498  0.1882E-01  0.2155E+00
     -5.396  0.2661E-01  0.2182E+00
     -5.293  0.3290E-01  0.2215E+00
     -5.191  0.3326E-01  0.2249E+00
     -5.089  0.2858E-01  0.2279E+00
     -4.986  0.2499E-01  0.2304E+00
     -4.884  0.1976E-01  0.2324E+00
     -4.782  0.1077E-01  0.2335E+00
     -4.679  0.5878E-02  0.2342E+00
     -4.577  0.1964E-02  0.2344E+00
     -4.475  0.2241E-03  0.2344E+00
     -4.373  0.5513E-05  0.2344E+00
     -4.270  0.2118E-07  0.2344E+00
     -4.168  0.1116E-10  0.2344E+00
     -4.066  0.7676E-15  0.2344E+00
     -3.963  0.0000E+00  0.2344E+00
     -3.861  0.0000E+00  0.2344E+00
     -3.759  0.0000E+00  0.2344E+00
     -3.656  0.0000E+00  0.2344E+00
     -3.554  0.0000E+00  0.2344E+00
     -3.452  0.0000E+00  0.2344E+00
     -3.349  0.8460E-14  0.2344E+00
     -3.247  0.9527E-10  0.2344E+00
     -3.145  0.1402E-06  0.2344E+00
     -3.043  0.2795E-04  0.2344E+00
     -2.940  0.8170E-03  0.2345E+00
     -2.838  0.4250E-02  0.2349E+00
     -2.736  0.6437E-02  0.2356E+00
     -2.633  0.8041E-02  0.2364E+00
     -2.531  0.1741E-01  0.2382E+00
     -2.429  0.1798E-01  0.2400E+00
     -2.326  0.1052E-01  0.2411E+00
     -2.224  0.1329E-01  0.2424E+00
     -2.122  0.1524E-01  0.2440E+00
     -2.019  0.1893E-01  0.2459E+00
     -1.917  0.1323E-01  0.2473E+00
     -1.815  0.2760E-02  0.2476E+00
     -1.712  0.3038E-02  0.2479E+00
     -1.610  0.7013E-02  0.2486E+00
     -1.508  0.4353E-02  0.2490E+00
     -1.406  0.1772E-02  0.2492E+00
     -1.303  0.4216E-02  0.2497E+00
     -1.201  0.3006E-02  0.2500E+00
     -1.099  0.3858E-03  0.2500E+00
     -0.996  0.7805E-05  0.2500E+00
     -0.894  0.2247E-07  0.2500E+00
     -0.792  0.1772E-07  0.2500E+00
     -0.689  0.6562E-05  0.2500E+00
     -0.587  0.3418E-03  0.2500E+00
     -0.485  0.2726E-02  0.2503E+00
     -0.382  0.3674E-02  0.2507E+00
     -0.280  0.1713E-02  0.2509E+00
     -0.178  0.3728E-02  0.2512E+00
     -0.076  0.2637E-02  0.2515E+00
      0.027  0.3485E-03  0.2516E+00
      0.129  0.1560E-02  0.2517E+00
      0.231  0.1179E-01  0.2529E+00
      0.334  0.1961E-01  0.2549E+00
      0.436  0.1600E-01  0.2566E+00
      0.538  0.1427E-01  0.2580E+00
      0.641  0.1265E-01  0.2593E+00
      0.743  0.1501E-01  0.2609E+00
      0.845  0.1300E-01  0.2622E+00
      0.948  0.1595E-01  0.2638E+00
      1.050  0.1736E-01  0.2656E+00
      1.152  0.1417E-01  0.2670E+00
      1.255  0.1615E-01  0.2687E+00
      1.357  0.1554E-01  0.2703E+00
      1.459  0.1999E-01  0.2723E+00
      1.561  0.1742E-01  0.2741E+00
      1.664  0.1037E-01  0.2752E+00
      1.766  0.1412E-01  0.2766E+00
      1.868  0.2299E-01  0.2790E+00
      1.971  0.1394E-01  0.2804E+00
      2.073  0.1253E-01  0.2817E+00
      2.175  0.1598E-01  0.2833E+00
      2.278  0.2997E-01  0.2864E+00
      2.380  0.4029E-01  0.2905E+00
      2.482  0.2733E-01  0.2933E+00
      2.585  0.1949E-01  0.2953E+00
      2.687  0.2583E-01  0.2979E+00
      2.789  0.4026E-01  0.3020E+00
      2.891  0.4042E-01  0.3062E+00
      2.994  0.2995E-01  0.3092E+00
      3.096  0.1547E-01  0.3108E+00
      3.198  0.2182E-01  0.3131E+00
      3.301  0.3673E-01  0.3168E+00
      3.403  0.3828E-01  0.3207E+00
      3.505  0.3229E-01  0.3240E+00
      3.608  0.2303E-01  0.3264E+00
      3.710  0.2782E-01  0.3292E+00
      3.812  0.2239E-01  0.3315E+00
      3.915  0.2865E-01  0.3345E+00
      4.017  0.3852E-01  0.3384E+00
      4.119  0.3657E-01  0.3421E+00
      4.222  0.2248E-01  0.3444E+00
      4.324  0.2436E-01  0.3469E+00
      4.426  0.3335E-01  0.3504E+00
      4.528  0.3715E-01  0.3542E+00
      4.631  0.3025E-01  0.3572E+00
      4.733  0.2311E-01  0.3596E+00
      4.835  0.2579E-01  0.3623E+00
      4.938  0.2797E-01  0.3651E+00
      5.040  0.2503E-01  0.3677E+00
      5.142  0.2621E-01  0.3704E+00
      5.245  0.2160E-01  0.3726E+00
      5.347  0.8359E-02  0.3734E+00
      5.449  0.6319E-02  0.3741E+00
      5.552  0.7293E-02  0.3748E+00
      5.654  0.1758E-02  0.3750E+00
      5.756  0.7062E-04  0.3750E+00
      5.858  0.4301E-06  0.3750E+00
      5.961  0.3715E-09  0.3750E+00
      6.063  0.4368E-13  0.3750E+00
      6.165  0.5605E-18  0.3750E+00
      6.268  0.0000E+00  0.3750E+00
      6.370  0.0000E+00  0.3750E+00
      6.472  0.0000E+00  0.3750E+00
      6.575  0.0000E+00  0.3750E+00
      6.677  0.0000E+00  0.3750E+00
      6.779  0.0000E+00  0.3750E+00
      6.882  0.0000E+00  0.3750E+00
      6.88159734    -23.81150255  301     -4.16632002      1.00000000
    -23.812  0.0000E+00  0.0000E+00  0.0000E+00  0.0000E+00  0.0000E+00  0.0000E+00  0.0000E+00  0.0000E+00  0.0000E+00
    -23.709  0.0000E+00  0.0000E+00  0.0000E+00  0.0000E+00  0.0000E+00  0.0000E+00  0.0000E+00  0.0000E+00  0.0000E+00
    -23.607  0.0000E+00  0.0000E+00  0.0000E+00  0.0000E+00  0.0000E+00  0.0000E+00  0.0000E+00  0.0000E+00  0.0000E+00
    -23.505  0.0000E+00  0.0000E+00  0.0000E+00  0.0000E+00  0.0000E+00  0.0000E+00  0.0000E+00  0.0000E+00  0.0000E+00
    -23.402  0.0000E+00  0.0000E+00  0.0000E+00  0.0000E+00  0.0000E+00  0.0000E+00  0.0000E+00  0.0000E+00  0.0000E+00
    -23.300  0.0000E+00  0.0000E+00  0.0000E+00  0.0000E+00  0.0000E+00  0.0000E+00  0.0000E+00  0.0000E+00  0.0000E+00
    -23.198  0.0000E+00  0.0000E+00  0.0000E+00  0.0000E+00  0.0000E+00  0.0000E+00  0.0000E+00  0.0000E+00  0.0000E+00
    -23.095  0.0000E+00  0.0000E+00  0.0000E+00  0.0000E+00  0.0000E+00  0.0000E+00  0.0000E+00  0.0000E+00  0.0000E+00
    -22.993  0.7662E-18  0.2707E-29  0.1816E-34  0.1885E-30  0.0000E+00  0.0000E+00  0.0000E+00  0.0000E+00  0.0000E+00
    -22.891  0.5283E-13  0.5246E-16  0.1265E-29  0.5246E-16  0.0000E+00  0.0000E+00  0.0000E+00  0.0000E+00  0.0000E+00
    -22.788  0.4399E-09  0.7768E-12  0.1062E-25  0.7768E-12  0.0000E+00  0.0000E+00  0.0000E+00  0.0000E+00  0.0000E+00
    -22.686  0.5279E-06  0.1518E-08  0.1288E-22  0.1518E-08  0.0000E+00  0.0000E+00  0.0000E+00  0.0000E+00  0.0000E+00
    -22.584  0.9744E-04  0.4214E-06  0.2410E-20  0.4214E-06  0.0000E+00  0.0000E+00  0.0000E+00  0.0000E+00  0.0000E+00
    -22.481  0.3050E-02  0.2012E-04  0.7705E-19  0.2012E-04  0.0000E+00  0.0000E+00  0.0000E+00  0.0000E+00  0.0000E+00
    -22.379  0.1990E-01  0.2333E-03  0.5264E-18  0.2333E-03  0.0000E+00  0.0000E+00  0.0000E+00  0.0000E+00  0.0000E+00
    -22.277  0.3964E-01  0.9339E-03  0.1184E-17  0.9339E-03  0.0000E+00  0.0000E+00  0.0000E+00  0.0000E+00  0.0000E+00
    -22.175  0.4290E-01  0.2101E-02  0.3216E-17  0.2101E-02  0.0000E+00  0.0000E+00  0.0000E+00  0.0000E+00  0.0000E+00
    -22.072  0.3986E-01  0.3550E-02  0.2175E-16  0.3550E-02  0.0000E+00  0.0000E+00  0.0000E+00  0.0000E+00  0.0000E+00
    -21.970  0.3750E-01  0.5921E-02  0.5391E-16  0.5921E-02  0.0000E+00  0.0000E+00  0.0000E+00  0.0000E+00  0.0000E+00
    -21.868  0.3313E-01  0.1018E-01  0.1270E-15  0.1018E-01  0.0000E+00  0.0000E+00  0.0000E+00  0.0000E+00  0.0000E+00
    -21.765  0.2693E-01  0.1600E-01  0.1670E-15  0.1600E-01  0.0000E+00  0.0000E+00  0.0000E+00  0.0000E+00  0.0000E+00
    -21.663  0.1135E-01  0.1209E-01  0.6227E-16  0.1209E-01  0.0000E+00  0.0000E+00  0.0000E+00  0.0000E+00  0.0000E+00
    -21.561  0.1642E-02  0.2922E-02  0.1408E-16  0.2922E-02  0.0000E+00  0.0000E+00  0.0000E+00  0.0000E+00  0.0000E+00
    -21.458  0.5708E-04  0.1706E-03  0.1138E-17  0.1706E-03  0.0000E+00  0.0000E+00  0.0000E+00  0.0000E+00  0.0000E+00
    -21.356  0.4030E-06  0.1925E-05  0.1555E-19  0.1925E-05  0.0000E+00  0.0000E+00  0.0000E+00  0.0000E+00  0.0000E+00
    -21.254  0.5377E-09  0.3440E-08  0.2996E-22  0.3440E-08  0.0000E+00  0.0000E+00  0.0000E+00  0.0000E+00  0.0000E+00
    -21.151  0.1179E-12  0.8590E-12  0.7683E-26  0.8590E-12  0.0000E+00  0.0000E+00  0.0000E+00  0.0000E+00  0.0000E+00
    -21.049  0.3577E-17  0.2804E-16  0.2541E-30  0.2804E-16  0.0000E+00  0.0000E+00  0.0000E+00  0.0000E+00  0.0000E+00
    -20.947  0.0000E+00  0.0000E+00  0.0000E+00  0.0000E+00  0.0000E+00  0.0000E+00  0.0000E+00  0.0000E+00  0.0000E+00
    -20.845  0.0000E+00  0.0000E+00  0.0000E+00  0.0000E+00  0.0000E+00  0.0000E+00  0.0000E+00  0.0000E+00  0.0000E+00
    -20.742  0.0000E+00  0.0000E+00  0.0000E+00  0.0000E+00  0.0000E+00  0.0000E+00  0.0000E+00  0.0000E+00  0.0000E+00
    -20.640  0.0000E+00  0.0000E+00  0.0000E+00  0.0000E+00  0.0000E+00  0.0000E+00  0.0000E+00  0.0000E+00  0.0000E+00
    -20.538  0.0000E+00  0.0000E+00  0.0000E+00  0.0000E+00  0.0000E+00  0.0000E+00  0.0000E+00  0.0000E+00  0.0000E+00
    -20.435  0.1716E-15  0.7919E-17  0.6224E-32  0.7919E-17  0.0000E+00  0.0000E+00  0.0000E+00  0.0000E+00  0.0000E+00
    -20.333  0.6419E-11  0.2962E-12  0.2352E-27  0.2961E-12  0.0000E+00  0.0000E+00  0.0000E+00  0.0000E+00  0.0000E+00
    -20.231  0.3087E-07  0.1424E-08  0.1150E-23  0.1424E-08  0.0000E+00  0.0000E+00  0.0000E+00  0.0000E+00  0.0000E+00
    -20.128  0.1977E-04  0.9125E-06  0.8226E-21  0.9124E-06  0.0000E+00  0.0000E+00  0.0000E+00  0.0000E+00  0.0000E+00
    -20.026  0.1775E-02  0.8224E-04  0.1646E-18  0.8223E-04  0.0000E+00  0.0000E+00  0.0000E+00  0.0000E+00  0.0000E+00
    -19.924  0.2538E-01  0.1211E-02  0.1632E-16  0.1211E-02  0.0000E+00  0.0000E+00  0.0000E+00  0.0000E+00  0.0000E+00
    -19.821  0.8493E-01  0.4650E-02  0.3579E-15  0.4650E-02  0.0000E+00  0.0000E+00  0.0000E+00  0.0000E+00  0.0000E+00
    -19.719  0.1315E+00  0.8940E-02  0.1373E-14  0.8941E-02  0.0000E+00  0.0000E+00  0.0000E+00  0.0000E+00  0.0000E+00
    -19.617  0.1267E+00  0.1065E-01  0.1058E-14  0.1065E-01  0.0000E+00  0.0000E+00  0.0000E+00  0.0000E+00  0.0000E+00
    -19.514  0.8959E-01  0.8809E-02  0.2273E-15  0.8809E-02  0.0000E+00  0.0000E+00  0.0000E+00  0.0000E+00  0.0000E+00
    -19.412  0.5981E-01  0.7709E-02  0.2155E-15  0.7708E-02  0.0000E+00  0.0000E+00  0.0000E+00  0.0000E+00  0.0000E+00
    -19.310  0.6349E-01  0.9979E-02  0.3153E-15  0.9979E-02  0.0000E+00  0.0000E+00  0.0000E+00  0.0000E+00  0.0000E+00
    -19.208  0.5140E-01  0.9727E-02  0.9013E-16  0.9727E-02  0.0000E+00  0.0000E+00  0.0000E+00  0.0000E+00  0.0000E+00
    -19.105  0.3949E-01  0.9907E-02  0.1001E-16  0.9907E-02  0.0000E+00  0.0000E+00  0.0000E+00  0.0000E+00  0.0000E+00
    -19.003  0.4990E-01  0.1714E-01  0.8675E-17  0.1714E-01  0.0000E+00  0.0000E+00  0.0000E+00  0.0000E+00  0.0000E+00
    -18.901  0.5204E-01  0.1889E-01  0.1030E-16  0.1889E-01  0.0000E+00  0.0000E+00  0.0000E+00  0.0000E+00  0.0000E+00
    -18.798  0.2461E-01  0.1589E-01  0.2879E-16  0.1589E-01  0.0000E+00  0.0000E+00  0.0000E+00  0.0000E+00  0.0000E+00
    -18.696  0.2985E-01  0.3144E-01  0.7465E-16  0.3144E-01  0.0000E+00  0.0000E+00  0.0000E+00  0.0000E+00  0.0000E+00
    -18.594  0.2530E-01  0.3580E-01  0.4631E-16  0.3580E-01  0.0000E+00  0.0000E+00  0.0000E+00  0.0000E+00  0.0000E+00
    -18.491  0.1423E-01  0.2896E-01  0.1667E-16  0.2896E-01  0.0000E+00  0.0000E+00  0.0000E+00  0.0000E+00  0.0000E+00
    -18.389  0.6824E-02  0.2069E-01  0.1055E-16  0.2069E-01  0.0000E+00  0.0000E+00  0.0000E+00  0.0000E+00  0.0000E+00
    -18.287  0.4169E-02  0.1627E-01  0.1056E-16  0.1627E-01  0.0000E+00  0.0000E+00  0.0000E+00  0.0000E+00  0.0000E+00
    -18.184  0.2634E-02  0.1274E-01  0.9539E-17  0.1274E-01  0.0000E+00  0.0000E+00  0.0000E+00  0.0000E+00  0.0000E+00
    -18.082  0.3584E-03  0.5680E-02  0.4842E-17  0.5680E-02  0.0000E+00  0.0000E+00  0.0000E+00  0.0000E+00  0.0000E+00
    -17.980  0.7591E-05  0.1158E-02  0.1062E-17  0.1158E-02  0.0000E+00  0.0000E+00  0.0000E+00  0.0000E+00  0.0000E+00
    -17.878  0.2270E-07  0.5702E-04  0.5455E-19  0.5705E-04  0.0000E+00  0.0000E+00  0.0000E+00  0.0000E+00  0.0000E+00
    -17.775  0.9077E-11  0.5156E-06  0.5061E-21  0.5160E-06  0.0000E+00  0.0000E+00  0.0000E+00  0.0000E+00  0.0000E+00
    -17.673  0.4712E-15  0.7254E-09  0.7205E-24  0.7262E-09  0.0000E+00  0.0000E+00  0.0000E+00  0.0000E+00  0.0000E+00
    -17.571  0.1170E-22  0.1421E-12  0.1418E-27  0.1424E-12  0.0000E+00  0.0000E+00  0.0000E+00  0.0000E+00  0.0000E+00
    -17.468  0.1529E-28  0.3560E-17  0.3561E-32  0.3560E-17  0.0000E+00  0.0000E+00  0.0000E+00  0.0000E+00  0.0000E+00
    -17.366  0.0000E+00  0.0000E+00  0.0000E+00  0.0000E+00  0.0000E+00  0.0000E+00  0.0000E+00  0.0000E+00  0.0000E+00
    -17.264  0.0000E+00  0.0000E+00  0.0000E+00  0.0000E+00  0.0000E+00  0.0000E+00  0.0000E+00  0.0000E+00  0.0000E+00
    -17.161  0.0000E+00  0.0000E+00  0.0000E+00  0.0000E+00  0.0000E+00  0.0000E+00  0.0000E+00  0.0000E+00  0.0000E+00
    -17.059  0.0000E+00  0.0000E+00  0.0000E+00  0.0000E+00  0.0000E+00  0.0000E+00  0.0000E+00  0.0000E+00  0.0000E+00
    -16.957  0.0000E+00  0.0000E+00  0.0000E+00  0.0000E+00  0.0000E+00  0.0000E+00  0.0000E+00  0.0000E+00  0.0000E+00
    -16.854  0.0000E+00  0.0000E+00  0.0000E+00  0.0000E+00  0.0000E+00  0.0000E+00  0.0000E+00  0.0000E+00  0.0000E+00
    -16.752  0.0000E+00  0.0000E+00  0.0000E+00  0.0000E+00  0.0000E+00  0.0000E+00  0.0000E+00  0.0000E+00  0.0000E+00
    -16.650  0.3243E-15  0.2454E-17  0.2992E-31  0.2467E-17  0.0000E+00  0.0000E+00  0.0000E+00  0.0000E+00  0.0000E+00
    -16.547  0.1075E-10  0.8160E-13  0.9929E-27  0.8172E-13  0.0000E+00  0.0000E+00  0.0000E+00  0.0000E+00  0.0000E+00
    -16.445  0.4616E-07  0.3523E-09  0.4261E-23  0.3527E-09  0.0000E+00  0.0000E+00  0.0000E+00  0.0000E+00  0.0000E+00
    -16.343  0.2640E-04  0.2062E-06  0.2434E-20  0.2064E-06  0.0000E+00  0.0000E+00  0.0000E+00  0.0000E+00  0.0000E+00
    -16.241  0.2147E-02  0.1836E-04  0.1969E-18  0.1837E-04  0.0000E+00  0.0000E+00  0.0000E+00  0.0000E+00  0.0000E+00
    -16.138  0.2869E-01  0.3200E-03  0.2755E-17  0.3202E-03  0.0000E+00  0.0000E+00  0.0000E+00  0.0000E+00  0.0000E+00
    -16.036  0.8671E-01  0.1585E-02  0.2533E-16  0.1585E-02  0.0000E+00  0.0000E+00  0.0000E+00  0.0000E+00  0.0000E+00
    -15.934  0.1416E+00  0.4571E-02  0.2825E-15  0.4571E-02  0.0000E+00  0.0000E+00  0.0000E+00  0.0000E+00  0.0000E+00
    -15.831  0.2121E+00  0.9927E-02  0.8645E-15  0.9928E-02  0.0000E+00  0.0000E+00  0.0000E+00  0.0000E+00  0.0000E+00
    -15.729  0.1694E+00  0.1500E-01  0.8020E-15  0.1500E-01  0.0000E+00  0.0000E+00  0.0000E+00  0.0000E+00  0.0000E+00
    -15.627  0.1276E+00  0.2463E-01  0.2867E-15  0.2463E-01  0.0000E+00  0.0000E+00  0.0000E+00  0.0000E+00  0.0000E+00
    -15.524  0.1271E+00  0.3218E-01  0.5865E-15  0.3218E-01  0.0000E+00  0.0000E+00  0.0000E+00  0.0000E+00  0.0000E+00
    -15.422  0.1878E+00  0.3001E-01  0.9132E-15  0.3001E-01  0.0000E+00  0.0000E+00  0.0000E+00  0.0000E+00  0.0000E+00
    -15.320  0.9394E-01  0.2209E-01  0.2650E-15  0.2209E-01  0.0000E+00  0.0000E+00  0.0000E+00  0.0000E+00  0.0000E+00
    -15.217  0.1306E-01  0.1642E-01  0.1910E-16  0.1641E-01  0.0000E+00  0.0000E+00  0.0000E+00  0.0000E+00  0.0000E+00
    -15.115  0.1997E-01  0.1376E-01  0.9096E-17  0.1376E-01  0.0000E+00  0.0000E+00  0.0000E+00  0.0000E+00  0.0000E+00
    -15.013  0.4197E-01  0.1633E-01  0.3109E-16  0.1634E-01  0.0000E+00  0.0000E+00  0.0000E+00  0.0000E+00  0.0000E+00
    -14.911  0.5063E-01  0.2774E-01  0.9339E-16  0.2775E-01  0.0000E+00  0.0000E+00  0.0000E+00  0.0000E+00  0.0000E+00
    -14.808  0.4054E-01  0.2820E-01  0.1136E-15  0.2820E-01  0.0000E+00  0.0000E+00  0.0000E+00  0.0000E+00  0.0000E+00
    -14.706  0.1705E-01  0.1344E-01  0.8611E-16  0.1343E-01  0.0000E+00  0.0000E+00  0.0000E+00  0.0000E+00  0.0000E+00
    -14.604  0.4769E-02  0.6446E-02  0.2355E-16  0.6447E-02  0.0000E+00  0.0000E+00  0.0000E+00  0.0000E+00  0.0000E+00
    -14.501  0.2718E-01  0.2396E-01  0.3566E-16  0.2396E-01  0.0000E+00  0.0000E+00  0.0000E+00  0.0000E+00  0.0000E+00
    -14.399  0.8687E-01  0.4683E-01  0.1030E-15  0.4683E-01  0.0000E+00  0.0000E+00  0.0000E+00  0.0000E+00  0.0000E+00
    -14.297  0.6589E-01  0.2452E-01  0.6661E-16  0.2451E-01  0.0000E+00  0.0000E+00  0.0000E+00  0.0000E+00  0.0000E+00
    -14.194  0.5559E-01  0.4305E-02  0.1259E-16  0.4304E-02  0.0000E+00  0.0000E+00  0.0000E+00  0.0000E+00  0.0000E+00
    -14.092  0.7684E-01  0.1158E-01  0.2243E-16  0.1159E-01  0.0000E+00  0.0000E+00  0.0000E+00  0.0000E+00  0.0000E+00
    -13.990  0.4402E-01  0.2489E-01  0.7391E-16  0.2489E-01  0.0000E+00  0.0000E+00  0.0000E+00  0.0000E+00  0.0000E+00
    -13.887  0.3657E-01  0.2479E-01  0.1424E-15  0.2479E-01  0.0000E+00  0.0000E+00  0.0000E+00  0.0000E+00  0.0000E+00
    -13.785  0.6828E-01  0.1197E-01  0.7172E-16  0.1196E-01  0.0000E+00  0.0000E+00  0.0000E+00  0.0000E+00  0.0000E+00
    -13.683  0.7736E-01  0.1188E-01  0.2653E-16  0.1188E-01  0.0000E+00  0.0000E+00  0.0000E+00  0.0000E+00  0.0000E+00
    -13.580  0.4784E-01  0.1529E-01  0.2584E-16  0.1529E-01  0.0000E+00  0.0000E+00  0.0000E+00  0.0000E+00  0.0000E+00
    -13.478  0.6985E-02  0.5870E-02  0.9074E-17  0.5867E-02  0.0000E+00  0.0000E+00  0.0000E+00  0.0000E+00  0.0000E+00
    -13.376  0.1068E-02  0.5698E-03  0.9362E-18  0.5693E-03  0.0000E+00  0.0000E+00  0.0000E+00  0.0000E+00  0.0000E+00
    -13.274  0.2208E-01  0.1850E-02  0.4976E-17  0.1850E-02  0.0000E+00  0.0000E+00  0.0000E+00  0.0000E+00  0.0000E+00
    -13.171  0.8661E-01  0.7219E-02  0.1946E-16  0.7218E-02  0.0000E+00  0.0000E+00  0.0000E+00  0.0000E+00  0.0000E+00
    -13.069  0.7367E-01  0.5915E-02  0.1621E-16  0.5915E-02  0.0000E+00  0.0000E+00  0.0000E+00  0.0000E+00  0.0000E+00
    -12.967  0.6061E-01  0.4025E-02  0.1191E-16  0.4025E-02  0.0000E+00  0.0000E+00  0.0000E+00  0.0000E+00  0.0000E+00
    -12.864  0.4316E-01  0.1823E-02  0.6383E-17  0.1823E-02  0.0000E+00  0.0000E+00  0.0000E+00  0.0000E+00  0.0000E+00
    -12.762  0.3385E-01  0.6368E-03  0.2724E-17  0.6367E-03  0.0000E+00  0.0000E+00  0.0000E+00  0.0000E+00  0.0000E+00
    -12.660  0.9014E-01  0.2086E-02  0.1137E-16  0.2086E-02  0.0000E+00  0.0000E+00  0.0000E+00  0.0000E+00  0.0000E+00
    -12.557  0.7802E-01  0.3681E-02  0.1747E-15  0.3681E-02  0.0000E+00  0.0000E+00  0.0000E+00  0.0000E+00  0.0000E+00
    -12.455  0.1022E+00  0.1663E-01  0.1159E-14  0.1663E-01  0.0000E+00  0.0000E+00  0.0000E+00  0.0000E+00  0.0000E+00
    -12.353  0.1386E+00  0.3084E-01  0.2046E-14  0.3084E-01  0.0000E+00  0.0000E+00  0.0000E+00  0.0000E+00  0.0000E+00
    -12.250  0.1425E+00  0.2329E-01  0.1063E-14  0.2329E-01  0.0000E+00  0.0000E+00  0.0000E+00  0.0000E+00  0.0000E+00
    -12.148  0.1279E+00  0.2077E-01  0.1508E-15  0.2077E-01  0.0000E+00  0.0000E+00  0.0000E+00  0.0000E+00  0.0000E+00
    -12.046  0.8667E-01  0.3443E-01  0.7316E-16  0.3443E-01  0.0000E+00  0.0000E+00  0.0000E+00  0.0000E+00  0.0000E+00
    -11.944  0.2147E-01  0.3423E-01  0.1137E-15  0.3423E-01  0.0000E+00  0.0000E+00  0.0000E+00  0.0000E+00  0.0000E+00
    -11.841  0.1965E-01  0.2139E-01  0.1778E-15  0.2139E-01  0.0000E+00  0.0000E+00  0.0000E+00  0.0000E+00  0.0000E+00
    -11.739  0.1028E+00  0.4358E-01  0.1032E-14  0.4358E-01  0.0000E+00  0.0000E+00  0.0000E+00  0.0000E+00  0.0000E+00
    -11.637  0.1985E+00  0.5326E-01  0.1378E-14  0.5327E-01  0.0000E+00  0.0000E+00  0.0000E+00  0.0000E+00  0.0000E+00
    -11.534  0.1333E+00  0.2337E-01  0.3366E-15  0.2337E-01  0.0000E+00  0.0000E+00  0.0000E+00  0.0000E+00  0.0000E+00
    -11.432  0.8903E-01  0.1309E-01  0.1079E-15  0.1309E-01  0.0000E+00  0.0000E+00  0.0000E+00  0.0000E+00  0.0000E+00
    -11.330  0.1252E+00  0.2893E-01  0.4690E-15  0.2893E-01  0.0000E+00  0.0000E+00  0.0000E+00  0.0000E+00  0.0000E+00
    -11.227  0.1141E+00  0.2394E-01  0.4464E-15  0.2395E-01  0.0000E+00  0.0000E+00  0.0000E+00  0.0000E+00  0.0000E+00
    -11.125  0.6690E-01  0.6941E-02  0.8844E-16  0.6941E-02  0.0000E+00  0.0000E+00  0.0000E+00  0.0000E+00  0.0000E+00
    -11.023  0.9584E-01  0.1296E-01  0.1065E-15  0.1296E-01  0.0000E+00  0.0000E+00  0.0000E+00  0.0000E+00  0.0000E+00
    -10.920  0.1152E+00  0.3025E-01  0.2557E-15  0.3025E-01  0.0000E+00  0.0000E+00  0.0000E+00  0.0000E+00  0.0000E+00
    -10.818  0.1830E+00  0.4474E-01  0.5499E-15  0.4474E-01  0.0000E+00  0.0000E+00  0.0000E+00  0.0000E+00  0.0000E+00
    -10.716  0.1645E+00  0.3068E-01  0.4911E-15  0.3068E-01  0.0000E+00  0.0000E+00  0.0000E+00  0.0000E+00  0.0000E+00
    -10.613  0.6730E-01  0.1100E-01  0.1155E-15  0.1100E-01  0.0000E+00  0.0000E+00  0.0000E+00  0.0000E+00  0.0000E+00
    -10.511  0.5349E-01  0.2396E-01  0.7038E-16  0.2396E-01  0.0000E+00  0.0000E+00  0.0000E+00  0.0000E+00  0.0000E+00
    -10.409  0.5092E-01  0.4576E-01  0.1239E-15  0.4576E-01  0.0000E+00  0.0000E+00  0.0000E+00  0.0000E+00  0.0000E+00
    -10.307  0.4919E-01  0.4130E-01  0.9076E-15  0.4130E-01  0.0000E+00  0.0000E+00  0.0000E+00  0.0000E+00  0.0000E+00
    -10.204  0.1319E+00  0.4847E-01  0.1245E-10  0.4846E-01  0.0000E+00  0.0000E+00  0.0000E+00  0.0000E+00  0.0000E+00
    -10.102  0.1304E+00  0.4161E-01  0.2903E-07  0.4161E-01  0.0000E+00  0.0000E+00  0.0000E+00  0.0000E+00  0.0000E+00
    -10.000  0.6965E-01  0.1639E-01  0.1016E-04  0.1640E-01  0.0000E+00  0.0000E+00  0.0000E+00  0.0000E+00  0.0000E+00
     -9.897  0.4587E-01  0.2062E-01  0.6216E-03  0.2062E-01  0.0000E+00  0.0000E+00  0.0000E+00  0.0000E+00  0.0000E+00
     -9.795  0.3592E-01  0.1793E-01  0.7618E-02  0.1793E-01  0.0000E+00  0.0000E+00  0.0000E+00  0.0000E+00  0.0000E+00
     -9.693  0.5419E-01  0.1494E-01  0.2289E-01  0.1494E-01  0.0000E+00  0.0000E+00  0.0000E+00  0.0000E+00  0.0000E+00
     -9.590  0.5721E-01  0.1444E-01  0.3185E-01  0.1444E-01  0.0000E+00  0.0000E+00  0.0000E+00  0.0000E+00  0.0000E+00
     -9.488  0.1534E-01  0.6729E-02  0.2861E-01  0.6732E-02  0.0000E+00  0.0000E+00  0.0000E+00  0.0000E+00  0.0000E+00
     -9.386  0.4171E-01  0.3875E-01  0.3211E-01  0.3876E-01  0.0000E+00  0.0000E+00  0.0000E+00  0.0000E+00  0.0000E+00
     -9.283  0.6956E-01  0.6442E-01  0.3063E-01  0.6442E-01  0.0000E+00  0.0000E+00  0.0000E+00  0.0000E+00  0.0000E+00
     -9.181  0.5750E-01  0.3592E-01  0.2211E-01  0.3591E-01  0.0000E+00  0.0000E+00  0.0000E+00  0.0000E+00  0.0000E+00
     -9.079  0.1096E+00  0.5933E-01  0.3452E-01  0.5933E-01  0.0000E+00  0.0000E+00  0.0000E+00  0.0000E+00  0.0000E+00
     -8.977  0.1180E+00  0.9169E-01  0.2612E-01  0.9169E-01  0.0000E+00  0.0000E+00  0.0000E+00  0.0000E+00  0.0000E+00
     -8.874  0.7712E-01  0.8135E-01  0.1864E-01  0.8134E-01  0.0000E+00  0.0000E+00  0.0000E+00  0.0000E+00  0.0000E+00
     -8.772  0.6552E-01  0.3323E-01  0.2874E-01  0.3323E-01  0.0000E+00  0.0000E+00  0.0000E+00  0.0000E+00  0.0000E+00
     -8.670  0.4859E-01  0.3553E-01  0.2564E-01  0.3553E-01  0.0000E+00  0.0000E+00  0.0000E+00  0.0000E+00  0.0000E+00
     -8.567  0.2379E-01  0.5650E-01  0.1647E-01  0.5650E-01  0.0000E+00  0.0000E+00  0.0000E+00  0.0000E+00  0.0000E+00
     -8.465  0.9216E-02  0.8360E-01  0.1637E-01  0.8360E-01  0.0000E+00  0.0000E+00  0.0000E+00  0.0000E+00  0.0000E+00
     -8.363  0.1251E-01  0.9088E-01  0.5972E-02  0.9088E-01  0.0000E+00  0.0000E+00  0.0000E+00  0.0000E+00  0.0000E+00
     -8.260  0.3230E-01  0.1257E+00  0.8272E-03  0.1257E+00  0.0000E+00  0.0000E+00  0.0000E+00  0.0000E+00  0.0000E+00
     -8.158  0.3337E-01  0.1114E+00  0.7849E-04  0.1114E+00  0.0000E+00  0.0000E+00  0.0000E+00  0.0000E+00  0.0000E+00
     -8.056  0.2453E-01  0.6619E-01  0.1766E-05  0.6618E-01  0.0000E+00  0.0000E+00  0.0000E+00  0.0000E+00  0.0000E+00
     -7.953  0.1181E-01  0.5849E-01  0.5828E-08  0.5848E-01  0.0000E+00  0.0000E+00  0.0000E+00  0.0000E+00  0.0000E+00
     -7.851  0.9559E-02  0.9948E-01  0.2584E-11  0.9948E-01  0.0000E+00  0.0000E+00  0.0000E+00  0.0000E+00  0.0000E+00