  15  15   0  16
  0.2021179E+02  0.4831000E-09  0.4831000E-09  0.1500000E-08  0.5000000E-15
  1.000000000000000E-004
  CAR 
 Lattice                                 
     10.35759806    -21.70811175  301     -0.25172961      1.00000000
    -21.708  0.0000E+00  0.0000E+00  0.0000E+00  0.0000E+00
    -21.601  0.0000E+00  0.0000E+00  0.0000E+00  0.0000E+00
    -21.494  0.0000E+00  0.0000E+00  0.0000E+00  0.0000E+00
    -21.387  0.0000E+00  0.0000E+00  0.0000E+00  0.0000E+00
    -21.281  0.0000E+00  0.0000E+00  0.0000E+00  0.0000E+00
    -21.174  0.0000E+00  0.0000E+00  0.0000E+00  0.0000E+00
    -21.067  0.0000E+00  0.0000E+00  0.0000E+00  0.0000E+00
    -20.960  0.0000E+00  0.0000E+00  0.0000E+00  0.0000E+00
    -20.853  0.0000E+00  0.0000E+00  0.0000E+00  0.0000E+00
    -20.746  0.6538E-15  0.6539E-15  0.6988E-16  0.6989E-16
    -20.639  0.1145E-10  0.1145E-10  0.1224E-11  0.1224E-11
    -20.532  0.2396E-07  0.2396E-07  0.2562E-08  0.2562E-08
    -20.425  0.6601E-05  0.6601E-05  0.7081E-06  0.7081E-06
    -20.319  0.2678E-03  0.2679E-03  0.2934E-04  0.2934E-04
    -20.212  0.1960E-02  0.1960E-02  0.2389E-03  0.2389E-03
    -20.105  0.4128E-02  0.4128E-02  0.6801E-03  0.6801E-03
    -19.998  0.4488E-02  0.4488E-02  0.1160E-02  0.1160E-02
    -19.891  0.4916E-02  0.4916E-02  0.1685E-02  0.1685E-02
    -19.784  0.4119E-02  0.4119E-02  0.2125E-02  0.2125E-02
    -19.677  0.5342E-02  0.5343E-02  0.2697E-02  0.2697E-02
    -19.570  0.4235E-02  0.4235E-02  0.3149E-02  0.3149E-02
    -19.464  0.4157E-02  0.4157E-02  0.3593E-02  0.3593E-02
    -19.357  0.5990E-02  0.5990E-02  0.4234E-02  0.4234E-02
    -19.250  0.3883E-02  0.3883E-02  0.4649E-02  0.4649E-02
    -19.143  0.3739E-02  0.3739E-02  0.5048E-02  0.5048E-02
    -19.036  0.6051E-02  0.6051E-02  0.5695E-02  0.5695E-02
    -18.929  0.5275E-02  0.5275E-02  0.6259E-02  0.6259E-02
    -18.822  0.3037E-02  0.3037E-02  0.6584E-02  0.6584E-02
    -18.715  0.4084E-02  0.4084E-02  0.7020E-02  0.7020E-02
    -18.608  0.6914E-02  0.6914E-02  0.7759E-02  0.7759E-02
    -18.502  0.4689E-02  0.4689E-02  0.8260E-02  0.8260E-02
    -18.395  0.3825E-02  0.3825E-02  0.8669E-02  0.8669E-02
    -18.288  0.2874E-02  0.2874E-02  0.8976E-02  0.8976E-02
    -18.181  0.6269E-02  0.6269E-02  0.9647E-02  0.9647E-02
    -18.074  0.6814E-02  0.6814E-02  0.1037E-01  0.1037E-01
    -17.967  0.3755E-02  0.3755E-02  0.1078E-01  0.1078E-01
    -17.860  0.3119E-02  0.3119E-02  0.1111E-01  0.1111E-01
    -17.753  0.4021E-02  0.4021E-02  0.1154E-01  0.1154E-01
    -17.646  0.5864E-02  0.5864E-02  0.1217E-01  0.1217E-01
    -17.540  0.6983E-02  0.6983E-02  0.1291E-01  0.1291E-01
    -17.433  0.6370E-02  0.6370E-02  0.1359E-01  0.1359E-01
    -17.326  0.7769E-02  0.7769E-02  0.1442E-01  0.1442E-01
    -17.219  0.1005E-01  0.1005E-01  0.1550E-01  0.1550E-01
    -17.112  0.1444E-01  0.1444E-01  0.1704E-01  0.1704E-01
    -17.005  0.1611E-01  0.1611E-01  0.1876E-01  0.1876E-01
    -16.898  0.1820E-01  0.1820E-01  0.2071E-01  0.2071E-01
    -16.791  0.2113E-01  0.2113E-01  0.2297E-01  0.2297E-01
    -16.684  0.1415E-01  0.1415E-01  0.2448E-01  0.2448E-01
    -16.578  0.3617E-02  0.3617E-02  0.2487E-01  0.2487E-01
    -16.471  0.6058E-02  0.6058E-02  0.2551E-01  0.2551E-01
    -16.364  0.8706E-02  0.8706E-02  0.2644E-01  0.2644E-01
    -16.257  0.4799E-02  0.4799E-02  0.2696E-01  0.2696E-01
    -16.150  0.4228E-02  0.4228E-02  0.2741E-01  0.2741E-01
    -16.043  0.3745E-02  0.3745E-02  0.2781E-01  0.2781E-01
    -15.936  0.4012E-02  0.4012E-02  0.2824E-01  0.2824E-01
    -15.829  0.3219E-02  0.3219E-02  0.2858E-01  0.2858E-01
    -15.723  0.7130E-02  0.7130E-02  0.2934E-01  0.2934E-01
    -15.616  0.8711E-02  0.8711E-02  0.3027E-01  0.3027E-01
    -15.509  0.4437E-02  0.4437E-02  0.3075E-01  0.3075E-01
    -15.402  0.3816E-02  0.3816E-02  0.3116E-01  0.3116E-01
    -15.295  0.3298E-02  0.3298E-02  0.3151E-01  0.3151E-01
    -15.188  0.4231E-02  0.4231E-02  0.3196E-01  0.3196E-01
    -15.081  0.6002E-02  0.6002E-02  0.3260E-01  0.3260E-01
    -14.974  0.1123E-01  0.1123E-01  0.3380E-01  0.3380E-01
    -14.867  0.1785E-01  0.1785E-01  0.3571E-01  0.3571E-01
    -14.761  0.1916E-01  0.1916E-01  0.3776E-01  0.3776E-01
    -14.654  0.1635E-01  0.1635E-01  0.3951E-01  0.3951E-01
    -14.547  0.1176E-01  0.1176E-01  0.4076E-01  0.4076E-01
    -14.440  0.7801E-02  0.7801E-02  0.4160E-01  0.4160E-01
    -14.333  0.1239E-01  0.1239E-01  0.4292E-01  0.4292E-01
    -14.226  0.1607E-01  0.1607E-01  0.4464E-01  0.4464E-01
    -14.119  0.1343E-01  0.1343E-01  0.4607E-01  0.4607E-01
    -14.012  0.1075E-01  0.1075E-01  0.4722E-01  0.4722E-01
    -13.905  0.1274E-01  0.1274E-01  0.4858E-01  0.4858E-01
    -13.799  0.1897E-01  0.1897E-01  0.5061E-01  0.5061E-01
    -13.692  0.1854E-01  0.1854E-01  0.5259E-01  0.5259E-01
    -13.585  0.1768E-01  0.1768E-01  0.5448E-01  0.5448E-01
    -13.478  0.1138E-01  0.1138E-01  0.5570E-01  0.5570E-01
    -13.371  0.6514E-02  0.6514E-02  0.5640E-01  0.5640E-01
    -13.264  0.3444E-02  0.3444E-02  0.5676E-01  0.5676E-01
    -13.157  0.3478E-02  0.3478E-02  0.5714E-01  0.5714E-01
    -13.050  0.6089E-02  0.6089E-02  0.5779E-01  0.5779E-01
    -12.943  0.7338E-02  0.7338E-02  0.5857E-01  0.5857E-01
    -12.837  0.4950E-02  0.4950E-02  0.5910E-01  0.5910E-01
    -12.730  0.5965E-02  0.5965E-02  0.5974E-01  0.5974E-01
    -12.623  0.7095E-02  0.7095E-02  0.6050E-01  0.6050E-01
    -12.516  0.5918E-02  0.5918E-02  0.6113E-01  0.6113E-01
    -12.409  0.5531E-02  0.5531E-02  0.6172E-01  0.6172E-01
    -12.302  0.3824E-02  0.3824E-02  0.6213E-01  0.6213E-01
    -12.195  0.4880E-02  0.4880E-02  0.6265E-01  0.6265E-01
    -12.088  0.8366E-02  0.8366E-02  0.6354E-01  0.6354E-01
    -11.982  0.4574E-02  0.4574E-02  0.6403E-01  0.6403E-01
    -11.875  0.3053E-02  0.3053E-02  0.6436E-01  0.6436E-01
    -11.768  0.3471E-02  0.3471E-02  0.6473E-01  0.6473E-01
    -11.661  0.4617E-02  0.4617E-02  0.6522E-01  0.6522E-01
    -11.554  0.7050E-02  0.7050E-02  0.6598E-01  0.6598E-01
    -11.447  0.5105E-02  0.5105E-02  0.6652E-01  0.6652E-01
    -11.340  0.1912E-02  0.1912E-02  0.6673E-01  0.6673E-01
    -11.233  0.3696E-02  0.3696E-02  0.6712E-01  0.6712E-01
    -11.126  0.5803E-02  0.5803E-02  0.6774E-01  0.6774E-01
    -11.020  0.5542E-02  0.5542E-02  0.6833E-01  0.6833E-01
    -10.913  0.6935E-02  0.6935E-02  0.6908E-01  0.6908E-01
    -10.806  0.7274E-02  0.7274E-02  0.6985E-01  0.6985E-01
    -10.699  0.3229E-02  0.3229E-02  0.7020E-01  0.7020E-01
    -10.592  0.7547E-02  0.7547E-02  0.7101E-01  0.7101E-01
    -10.485  0.1309E-01  0.1309E-01  0.7240E-01  0.7240E-01
    -10.378  0.1499E-01  0.1499E-01  0.7401E-01  0.7401E-01
    -10.271  0.1583E-01  0.1583E-01  0.7570E-01  0.7570E-01
    -10.164  0.1563E-01  0.1563E-01  0.7737E-01  0.7737E-01
    -10.058  0.1674E-01  0.1674E-01  0.7916E-01  0.7916E-01
     -9.951  0.1648E-01  0.1648E-01  0.8092E-01  0.8092E-01
     -9.844  0.1051E-01  0.1051E-01  0.8204E-01  0.8204E-01
     -9.737  0.9385E-02  0.9385E-02  0.8305E-01  0.8305E-01
     -9.630  0.1339E-01  0.1339E-01  0.8448E-01  0.8448E-01
     -9.523  0.1186E-01  0.1186E-01  0.8575E-01  0.8575E-01
     -9.416  0.1580E-01  0.1580E-01  0.8743E-01  0.8743E-01
     -9.309  0.1909E-01  0.1909E-01  0.8947E-01  0.8947E-01
     -9.202  0.1424E-01  0.1424E-01  0.9100E-01  0.9100E-01
     -9.096  0.9679E-02  0.9679E-02  0.9203E-01  0.9203E-01
     -8.989  0.6197E-02  0.6197E-02  0.9269E-01  0.9269E-01
     -8.882  0.1510E-01  0.1510E-01  0.9431E-01  0.9431E-01
     -8.775  0.2228E-01  0.2228E-01  0.9669E-01  0.9669E-01
     -8.668  0.1439E-01  0.1439E-01  0.9823E-01  0.9823E-01
     -8.561  0.8077E-02  0.8077E-02  0.9909E-01  0.9909E-01
     -8.454  0.1085E-01  0.1085E-01  0.1002E+00  0.1002E+00
     -8.347  0.1891E-01  0.1891E-01  0.1023E+00  0.1023E+00
     -8.241  0.1911E-01  0.1911E-01  0.1043E+00  0.1043E+00
     -8.134  0.1277E-01  0.1277E-01  0.1057E+00  0.1057E+00
     -8.027  0.1603E-01  0.1603E-01  0.1074E+00  0.1074E+00
     -7.920  0.2320E-01  0.2320E-01  0.1099E+00  0.1099E+00
     -7.813  0.2393E-01  0.2393E-01  0.1124E+00  0.1124E+00
     -7.706  0.2098E-01  0.2098E-01  0.1147E+00  0.1147E+00
     -7.599  0.1196E-01  0.1196E-01  0.1159E+00  0.1159E+00
     -7.492  0.6785E-02  0.6785E-02  0.1167E+00  0.1167E+00
     -7.385  0.1593E-01  0.1593E-01  0.1184E+00  0.1184E+00
     -7.279  0.1878E-01  0.1878E-01  0.1204E+00  0.1204E+00
     -7.172  0.1275E-01  0.1275E-01  0.1217E+00  0.1217E+00
     -7.065  0.1165E-01  0.1165E-01  0.1230E+00  0.1230E+00
     -6.958  0.1583E-01  0.1583E-01  0.1247E+00  0.1247E+00
     -6.851  0.1777E-01  0.1777E-01  0.1266E+00  0.1266E+00
     -6.744  0.1834E-01  0.1834E-01  0.1285E+00  0.1285E+00
     -6.637  0.2221E-01  0.2221E-01  0.1309E+00  0.1309E+00
     -6.530  0.2075E-01  0.2075E-01  0.1331E+00  0.1331E+00
     -6.423  0.2147E-01  0.2147E-01  0.1354E+00  0.1354E+00
     -6.317  0.1728E-01  0.1728E-01  0.1373E+00  0.1373E+00
     -6.210  0.1717E-01  0.1717E-01  0.1391E+00  0.1391E+00
     -6.103  0.2445E-01  0.2445E-01  0.1417E+00  0.1417E+00
     -5.996  0.2562E-01  0.2562E-01  0.1445E+00  0.1445E+00
     -5.889  0.3041E-01  0.3041E-01  0.1477E+00  0.1477E+00
     -5.782  0.2635E-01  0.2635E-01  0.1505E+00  0.1505E+00
     -5.675  0.1890E-01  0.1890E-01  0.1526E+00  0.1526E+00
     -5.568  0.2126E-01  0.2126E-01  0.1548E+00  0.1548E+00
     -5.461  0.3133E-01  0.3133E-01  0.1582E+00  0.1582E+00
     -5.355  0.3332E-01  0.3332E-01  0.1617E+00  0.1617E+00
     -5.248  0.2303E-01  0.2303E-01  0.1642E+00  0.1642E+00
     -5.141  0.1698E-01  0.1698E-01  0.1660E+00  0.1660E+00
     -5.034  0.1066E-01  0.1066E-01  0.1672E+00  0.1672E+00
     -4.927  0.8986E-02  0.8986E-02  0.1681E+00  0.1681E+00
     -4.820  0.1350E-01  0.1350E-01  0.1696E+00  0.1696E+00
     -4.713  0.1279E-01  0.1279E-01  0.1709E+00  0.1709E+00
     -4.606  0.8685E-02  0.8685E-02  0.1719E+00  0.1719E+00
     -4.500  0.8413E-02  0.8413E-02  0.1727E+00  0.1727E+00
     -4.393  0.1331E-01  0.1331E-01  0.1742E+00  0.1742E+00
     -4.286  0.2307E-01  0.2307E-01  0.1766E+00  0.1766E+00
     -4.179  0.2182E-01  0.2182E-01  0.1790E+00  0.1790E+00
     -4.072  0.1811E-01  0.1811E-01  0.1809E+00  0.1809E+00
     -3.965  0.1967E-01  0.1967E-01  0.1830E+00  0.1830E+00
     -3.858  0.2523E-01  0.2523E-01  0.1857E+00  0.1857E+00
     -3.751  0.1966E-01  0.1966E-01  0.1878E+00  0.1878E+00
     -3.644  0.1884E-01  0.1883E-01  0.1898E+00  0.1898E+00
     -3.538  0.1954E-01  0.1954E-01  0.1919E+00  0.1919E+00
     -3.431  0.1671E-01  0.1671E-01  0.1937E+00  0.1937E+00
     -3.324  0.1244E-01  0.1244E-01  0.1950E+00  0.1950E+00
     -3.217  0.1311E-01  0.1311E-01  0.1964E+00  0.1964E+00
     -3.110  0.1817E-01  0.1817E-01  0.1984E+00  0.1984E+00
     -3.003  0.1767E-01  0.1767E-01  0.2003E+00  0.2003E+00
     -2.896  0.1228E-01  0.1228E-01  0.2016E+00  0.2016E+00
     -2.789  0.1244E-01  0.1244E-01  0.2029E+00  0.2029E+00
     -2.682  0.8346E-02  0.8346E-02  0.2038E+00  0.2038E+00
     -2.576  0.9418E-02  0.9417E-02  0.2048E+00  0.2048E+00
     -2.469  0.1666E-01  0.1666E-01  0.2066E+00  0.2066E+00
     -2.362  0.1729E-01  0.1729E-01  0.2084E+00  0.2084E+00
     -2.255  0.5186E-02  0.5186E-02  0.2090E+00  0.2090E+00
     -2.148  0.5098E-02  0.5098E-02  0.2095E+00  0.2095E+00
     -2.041  0.1007E-01  0.1007E-01  0.2106E+00  0.2106E+00
     -1.934  0.9337E-02  0.9337E-02  0.2116E+00  0.2116E+00
     -1.827  0.1046E-01  0.1046E-01  0.2127E+00  0.2127E+00
     -1.720  0.1091E-01  0.1091E-01  0.2139E+00  0.2139E+00
     -1.614  0.1026E-01  0.1026E-01  0.2150E+00  0.2150E+00
     -1.507  0.8423E-02  0.8423E-02  0.2159E+00  0.2159E+00
     -1.400  0.3826E-02  0.3826E-02  0.2163E+00  0.2163E+00
     -1.293  0.3974E-02  0.3974E-02  0.2167E+00  0.2167E+00
     -1.186  0.4538E-02  0.4538E-02  0.2172E+00  0.2172E+00
     -1.079  0.3103E-02  0.3103E-02  0.2175E+00  0.2175E+00
     -0.972  0.4916E-02  0.4916E-02  0.2181E+00  0.2181E+00
     -0.865  0.4335E-02  0.4335E-02  0.2185E+00  0.2185E+00
     -0.759  0.1050E-02  0.1050E-02  0.2186E+00  0.2186E+00
     -0.652  0.1076E-03  0.1076E-03  0.2186E+00  0.2186E+00
     -0.545  0.3192E-05  0.3192E-05  0.2186E+00  0.2186E+00
     -0.438  0.9032E-05  0.9032E-05  0.2186E+00  0.2186E+00
     -0.331  0.2606E-03  0.2606E-03  0.2187E+00  0.2187E+00
     -0.224  0.1052E-02  0.1052E-02  0.2188E+00  0.2188E+00
     -0.117  0.6487E-03  0.6487E-03  0.2189E+00  0.2189E+00
     -0.010  0.5895E-04  0.5894E-04  0.2189E+00  0.2189E+00
      0.097  0.7075E-06  0.7075E-06  0.2189E+00  0.2189E+00
      0.203  0.2709E-05  0.2709E-05  0.2189E+00  0.2189E+00
      0.310  0.2074E-03  0.2075E-03  0.2189E+00  0.2189E+00
      0.417  0.2085E-02  0.2085E-02  0.2191E+00  0.2191E+00
      0.524  0.3094E-02  0.3094E-02  0.2194E+00  0.2194E+00
      0.631  0.1148E-02  0.1148E-02  0.2196E+00  0.2196E+00
      0.738  0.3446E-02  0.3446E-02  0.2199E+00  0.2199E+00
      0.845  0.6446E-02  0.6446E-02  0.2206E+00  0.2206E+00
      0.952  0.9664E-02  0.9664E-02  0.2216E+00  0.2216E+00
      1.059  0.2116E-01  0.2116E-01  0.2239E+00  0.2239E+00
      1.165  0.2129E-01  0.2129E-01  0.2262E+00  0.2262E+00
      1.272  0.6534E-02  0.6534E-02  0.2269E+00  0.2269E+00
      1.379  0.2189E-02  0.2189E-02  0.2271E+00  0.2271E+00
      1.486  0.5194E-02  0.5194E-02  0.2277E+00  0.2277E+00
      1.593  0.1281E-01  0.1281E-01  0.2290E+00  0.2290E+00
      1.700  0.1980E-01  0.1980E-01  0.2312E+00  0.2312E+00
      1.807  0.1509E-01  0.1509E-01  0.2328E+00  0.2328E+00
      1.914  0.9069E-02  0.9069E-02  0.2337E+00  0.2337E+00
      2.021  0.7273E-02  0.7273E-02  0.2345E+00  0.2345E+00
      2.127  0.1035E-01  0.1035E-01  0.2356E+00  0.2356E+00
      2.234  0.7629E-02  0.7629E-02  0.2364E+00  0.2364E+00
      2.341  0.8106E-02  0.8106E-02  0.2373E+00  0.2373E+00
      2.448  0.7648E-02  0.7648E-02  0.2381E+00  0.2381E+00
      2.555  0.6065E-02  0.6065E-02  0.2388E+00  0.2388E+00
      2.662  0.1225E-01  0.1224E-01  0.2401E+00  0.2401E+00
      2.769  0.1039E-01  0.1039E-01  0.2412E+00  0.2412E+00
      2.876  0.5476E-02  0.5479E-02  0.2418E+00  0.2418E+00
      2.982  0.7181E-02  0.7187E-02  0.2425E+00  0.2425E+00
      3.089  0.1030E-01  0.1030E-01  0.2436E+00  0.2436E+00
      3.196  0.1127E-01  0.1127E-01  0.2449E+00  0.2449E+00
      3.303  0.9854E-02  0.9857E-02  0.2459E+00  0.2459E+00
      3.410  0.1025E-01  0.1025E-01  0.2470E+00  0.2470E+00
      3.517  0.8153E-02  0.8155E-02  0.2479E+00  0.2479E+00
      3.624  0.1525E-01  0.1525E-01  0.2495E+00  0.2495E+00
      3.731  0.2239E-01  0.2238E-01  0.2519E+00  0.2519E+00
      3.838  0.2248E-01  0.2248E-01  0.2543E+00  0.2543E+00
      3.944  0.2113E-01  0.2113E-01  0.2566E+00  0.2566E+00
      4.051  0.2141E-01  0.2142E-01  0.2588E+00  0.2588E+00
      4.158  0.2525E-01  0.2525E-01  0.2615E+00  0.2615E+00
      4.265  0.2573E-01  0.2574E-01  0.2643E+00  0.2643E+00
      4.372  0.2447E-01  0.2447E-01  0.2669E+00  0.2669E+00
      4.479  0.2513E-01  0.2514E-01  0.2696E+00  0.2696E+00
      4.586  0.2372E-01  0.2372E-01  0.2721E+00  0.2721E+00
      4.693  0.2013E-01  0.2014E-01  0.2743E+00  0.2743E+00
      4.800  0.2395E-01  0.2396E-01  0.2768E+00  0.2768E+00
      4.906  0.2896E-01  0.2896E-01  0.2799E+00  0.2799E+00
      5.013  0.2340E-01  0.2340E-01  0.2824E+00  0.2824E+00
      5.120  0.2367E-01  0.2368E-01  0.2850E+00  0.2850E+00
      5.227  0.2545E-01  0.2543E-01  0.2877E+00  0.2877E+00
      5.334  0.1914E-01  0.1914E-01  0.2897E+00  0.2897E+00
      5.441  0.2239E-01  0.2239E-01  0.2921E+00  0.2921E+00
      5.548  0.2539E-01  0.2540E-01  0.2948E+00  0.2948E+00
      5.655  0.3021E-01  0.3021E-01  0.2981E+00  0.2981E+00
      5.762  0.2028E-01  0.2027E-01  0.3002E+00  0.3002E+00
      5.868  0.1919E-01  0.1920E-01  0.3023E+00  0.3023E+00
      5.975  0.2090E-01  0.2088E-01  0.3045E+00  0.3045E+00
      6.082  0.2281E-01  0.2280E-01  0.3070E+00  0.3070E+00
      6.189  0.1648E-01  0.1648E-01  0.3087E+00  0.3087E+00
      6.296  0.1567E-01  0.1569E-01  0.3104E+00  0.3104E+00
      6.403  0.2053E-01  0.2053E-01  0.3126E+00  0.3126E+00
      6.510  0.2534E-01  0.2534E-01  0.3153E+00  0.3153E+00
      6.617  0.2601E-01  0.2601E-01  0.3181E+00  0.3181E+00
      6.723  0.2210E-01  0.2211E-01  0.3204E+00  0.3205E+00
      6.830  0.3092E-01  0.3093E-01  0.3237E+00  0.3238E+00
      6.937  0.3094E-01  0.3093E-01  0.3271E+00  0.3271E+00
      7.044  0.2639E-01  0.2639E-01  0.3299E+00  0.3299E+00
      7.151  0.2644E-01  0.2644E-01  0.3327E+00  0.3327E+00
      7.258  0.2313E-01  0.2313E-01  0.3352E+00  0.3352E+00
      7.365  0.1700E-01  0.1698E-01  0.3370E+00  0.3370E+00
      7.472  0.2071E-01  0.2075E-01  0.3392E+00  0.3392E+00
      7.579  0.2521E-01  0.2521E-01  0.3419E+00  0.3419E+00
      7.685  0.2055E-01  0.2054E-01  0.3441E+00  0.3441E+00
      7.792  0.2399E-01  0.2401E-01  0.3467E+00  0.3467E+00
      7.899  0.2870E-01  0.2870E-01  0.3497E+00  0.3497E+00
      8.006  0.3165E-01  0.3164E-01  0.3531E+00  0.3531E+00
      8.113  0.3352E-01  0.3354E-01  0.3567E+00  0.3567E+00
      8.220  0.3236E-01  0.3232E-01  0.3602E+00  0.3602E+00
      8.327  0.2788E-01  0.2787E-01  0.3631E+00  0.3631E+00
      8.434  0.3231E-01  0.3234E-01  0.3666E+00  0.3666E+00
      8.541  0.3556E-01  0.3552E-01  0.3704E+00  0.3704E+00
      8.647  0.2210E-01  0.2208E-01  0.3727E+00  0.3728E+00
      8.754  0.1192E-01  0.1192E-01  0.3740E+00  0.3740E+00
      8.861  0.5398E-02  0.5392E-02  0.3746E+00  0.3746E+00
      8.968  0.3077E-02  0.3075E-02  0.3749E+00  0.3749E+00
      9.075  0.6375E-03  0.6372E-03  0.3750E+00  0.3750E+00
      9.182  0.2223E-04  0.2222E-04  0.3750E+00  0.3750E+00
      9.289  0.1042E-06  0.1042E-06  0.3750E+00  0.3750E+00
      9.396  0.5773E-10  0.5774E-10  0.3750E+00  0.3750E+00
      9.503  0.3532E-14  0.3533E-14  0.3750E+00  0.3750E+00
      9.609  0.0000E+00  0.0000E+00  0.3750E+00  0.3750E+00
      9.716  0.0000E+00  0.0000E+00  0.3750E+00  0.3750E+00
      9.823  0.0000E+00  0.0000E+00  0.3750E+00  0.3750E+00
      9.930  0.0000E+00  0.0000E+00  0.3750E+00  0.3750E+00
     10.037  0.0000E+00  0.0000E+00  0.3750E+00  0.3750E+00
     10.144  0.0000E+00  0.0000E+00  0.3750E+00  0.3750E+00
     10.251  0.0000E+00  0.0000E+00  0.3750E+00  0.3750E+00
     10.358  0.0000E+00  0.0000E+00  0.3750E+00  0.3750E+00
