   8   8   1   4
  0.4338553E+02  0.5169000E-09  0.5169000E-09  0.1500000E-08  0.5000000E-15
  1.000000000000000E-004
  CAR 
 BS                                      
     12.48311254    -21.42610972  301     -3.47164885      1.00000000
    -21.426  0.0000E+00  0.0000E+00
    -21.313  0.0000E+00  0.0000E+00
    -21.200  0.0000E+00  0.0000E+00
    -21.087  0.0000E+00  0.0000E+00
    -20.974  0.0000E+00  0.0000E+00
    -20.861  0.0000E+00  0.0000E+00
    -20.748  0.0000E+00  0.0000E+00
    -20.635  0.0000E+00  0.0000E+00
    -20.522  0.0000E+00  0.0000E+00
    -20.409  0.6412E-13  0.7247E-14
    -20.296  0.3493E-08  0.3948E-09
    -20.183  0.1625E-04  0.1838E-05
    -20.070  0.6887E-02  0.7803E-03
    -19.957  0.3026E+00  0.3499E-01
    -19.844  0.1777E+01  0.2358E+00
    -19.731  0.2247E+01  0.4899E+00
    -19.618  0.1603E+01  0.6711E+00
    -19.505  0.1389E+01  0.8280E+00
    -19.392  0.1804E+01  0.1032E+01
    -19.279  0.3948E+01  0.1478E+01
    -19.165  0.3801E+01  0.1908E+01
    -19.052  0.7901E+00  0.1997E+01
    -18.939  0.2510E-01  0.2000E+01
    -18.826  0.9037E-04  0.2000E+01
    -18.713  0.3083E-07  0.2000E+01
    -18.600  0.9145E-12  0.2000E+01
    -18.487  0.0000E+00  0.2000E+01
    -18.374  0.0000E+00  0.2000E+01
    -18.261  0.0000E+00  0.2000E+01
    -18.148  0.2985E-13  0.2000E+01
    -18.035  0.1957E-08  0.2000E+01
    -17.922  0.1093E-04  0.2000E+01
    -17.809  0.5521E-02  0.2001E+01
    -17.696  0.2854E+00  0.2033E+01
    -17.583  0.1923E+01  0.2250E+01
    -17.470  0.2738E+01  0.2560E+01
    -17.357  0.2619E+01  0.2856E+01
    -17.244  0.2659E+01  0.3156E+01
    -17.131  0.2071E+01  0.3390E+01
    -17.018  0.1735E+01  0.3586E+01
    -16.905  0.1601E+01  0.3767E+01
    -16.792  0.1545E+01  0.3942E+01
    -16.679  0.1557E+01  0.4118E+01
    -16.566  0.1760E+01  0.4317E+01
    -16.453  0.2578E+01  0.4608E+01
    -16.340  0.2774E+01  0.4922E+01
    -16.227  0.2191E+01  0.5170E+01
    -16.114  0.2334E+01  0.5433E+01
    -16.001  0.3000E+01  0.5772E+01
    -15.888  0.1802E+01  0.5976E+01
    -15.775  0.2080E+00  0.6000E+01
    -15.662  0.3012E-02  0.6000E+01
    -15.549  0.4368E-05  0.6000E+01
    -15.435  0.5669E-09  0.6000E+01
    -15.322  0.6170E-14  0.6000E+01
    -15.209  0.0000E+00  0.6000E+01
    -15.096  0.0000E+00  0.6000E+01
    -14.983  0.0000E+00  0.6000E+01
    -14.870  0.0000E+00  0.6000E+01
    -14.757  0.3069E-15  0.6000E+01
    -14.644  0.4669E-10  0.6000E+01
    -14.531  0.5917E-06  0.6000E+01
    -14.418  0.6614E-03  0.6000E+01
    -14.305  0.7187E-01  0.6008E+01
    -14.192  0.9231E+00  0.6113E+01
    -14.079  0.2017E+01  0.6341E+01
    -13.966  0.1588E+01  0.6520E+01
    -13.853  0.1297E+01  0.6667E+01
    -13.740  0.2093E+01  0.6903E+01
    -13.627  0.4059E+01  0.7362E+01
    -13.514  0.3193E+01  0.7723E+01
    -13.401  0.1879E+01  0.7935E+01
    -13.288  0.1585E+01  0.8114E+01
    -13.175  0.1492E+01  0.8283E+01
    -13.062  0.1452E+01  0.8447E+01
    -12.949  0.1466E+01  0.8613E+01
    -12.836  0.1614E+01  0.8795E+01
    -12.723  0.1833E+01  0.9002E+01
    -12.610  0.1891E+01  0.9216E+01
    -12.497  0.1922E+01  0.9434E+01
    -12.384  0.1652E+01  0.9620E+01
    -12.271  0.1386E+01  0.9777E+01
    -12.158  0.1321E+01  0.9926E+01
    -12.045  0.1373E+01  0.1008E+02
    -11.932  0.1650E+01  0.1027E+02
    -11.818  0.1693E+01  0.1046E+02
    -11.705  0.7413E+00  0.1054E+02
    -11.592  0.3555E+00  0.1058E+02
    -11.479  0.3278E+00  0.1062E+02
    -11.366  0.3573E+00  0.1066E+02
    -11.253  0.7821E+00  0.1075E+02
    -11.140  0.1279E+01  0.1089E+02
    -11.027  0.1054E+01  0.1101E+02
    -10.914  0.1301E+01  0.1116E+02
    -10.801  0.2021E+01  0.1139E+02
    -10.688  0.1797E+01  0.1159E+02
    -10.575  0.1511E+01  0.1176E+02
    -10.462  0.1412E+01  0.1192E+02
    -10.349  0.1410E+01  0.1208E+02
    -10.236  0.1411E+01  0.1224E+02
    -10.123  0.1259E+01  0.1238E+02
    -10.010  0.1472E+01  0.1255E+02
     -9.897  0.1456E+01  0.1271E+02
     -9.784  0.1691E+01  0.1290E+02
     -9.671  0.1917E+01  0.1312E+02
     -9.558  0.1506E+01  0.1329E+02
     -9.445  0.1327E+01  0.1344E+02
     -9.332  0.1285E+01  0.1359E+02
     -9.219  0.1568E+01  0.1376E+02
     -9.106  0.2250E+01  0.1402E+02
     -8.993  0.2311E+01  0.1428E+02
     -8.880  0.2227E+01  0.1453E+02
     -8.767  0.2163E+01  0.1478E+02
     -8.654  0.3354E+01  0.1516E+02
     -8.541  0.4276E+01  0.1564E+02
     -8.428  0.4167E+01  0.1611E+02
     -8.315  0.3174E+01  0.1647E+02
     -8.202  0.2083E+01  0.1670E+02
     -8.088  0.1581E+01  0.1688E+02
     -7.975  0.1922E+01  0.1710E+02
     -7.862  0.2100E+01  0.1734E+02
     -7.749  0.2074E+01  0.1757E+02
     -7.636  0.3183E+01  0.1793E+02
     -7.523  0.5675E+01  0.1857E+02
     -7.410  0.4523E+01  0.1908E+02
     -7.297  0.4270E+01  0.1957E+02
     -7.184  0.4355E+01  0.2006E+02
     -7.071  0.1775E+01  0.2026E+02
     -6.958  0.9670E+00  0.2037E+02
     -6.845  0.9782E+00  0.2048E+02
     -6.732  0.1253E+01  0.2062E+02
     -6.619  0.2625E+01  0.2092E+02
     -6.506  0.3896E+01  0.2136E+02
     -6.393  0.5956E+01  0.2203E+02
     -6.280  0.8607E+01  0.2300E+02
     -6.167  0.6627E+01  0.2375E+02
     -6.054  0.4610E+01  0.2427E+02
     -5.941  0.2762E+01  0.2459E+02
     -5.828  0.2108E+01  0.2482E+02
     -5.715  0.2002E+01  0.2505E+02
     -5.602  0.1960E+01  0.2527E+02
     -5.489  0.1952E+01  0.2549E+02
     -5.376  0.1976E+01  0.2572E+02
     -5.263  0.2045E+01  0.2595E+02
     -5.150  0.2228E+01  0.2620E+02
     -5.037  0.2760E+01  0.2651E+02
     -4.924  0.2977E+01  0.2685E+02
     -4.811  0.2930E+01  0.2718E+02
     -4.698  0.3965E+01  0.2763E+02
     -4.585  0.4343E+01  0.2812E+02
     -4.471  0.4663E+01  0.2865E+02
     -4.358  0.2585E+01  0.2894E+02
     -4.245  0.1167E+01  0.2907E+02
     -4.132  0.1160E+01  0.2920E+02
     -4.019  0.1353E+01  0.2935E+02
     -3.906  0.1831E+01  0.2956E+02
     -3.793  0.2497E+01  0.2984E+02
     -3.680  0.1275E+01  0.2999E+02
     -3.567  0.1131E+00  0.3000E+02
     -3.454  0.1213E-02  0.3000E+02
     -3.341  0.5360E-02  0.3000E+02
     -3.228  0.2274E+00  0.3003E+02
     -3.115  0.1292E+01  0.3017E+02
     -3.002  0.1580E+01  0.3035E+02
     -2.889  0.1079E+01  0.3047E+02
     -2.776  0.8661E+00  0.3057E+02
     -2.663  0.1046E+01  0.3069E+02
     -2.550  0.1649E+01  0.3088E+02
     -2.437  0.1524E+01  0.3105E+02
     -2.324  0.1262E+01  0.3119E+02
     -2.211  0.1176E+01  0.3132E+02
     -2.098  0.1210E+01  0.3146E+02
     -1.985  0.1373E+01  0.3162E+02
     -1.872  0.1044E+01  0.3173E+02
     -1.759  0.5693E+00  0.3180E+02
     -1.646  0.5002E+00  0.3185E+02
     -1.533  0.4999E+00  0.3191E+02
     -1.420  0.5378E+00  0.3197E+02
     -1.307  0.5939E+00  0.3204E+02
     -1.194  0.5288E+00  0.3210E+02
     -1.081  0.5017E+00  0.3215E+02
     -0.968  0.5035E+00  0.3221E+02
     -0.855  0.5103E+00  0.3227E+02
     -0.741  0.5223E+00  0.3233E+02
     -0.628  0.5419E+00  0.3239E+02
     -0.515  0.5734E+00  0.3245E+02
     -0.402  0.6383E+00  0.3253E+02
     -0.289  0.1145E+01  0.3266E+02
     -0.176  0.3071E+01  0.3300E+02
     -0.063  0.3155E+01  0.3336E+02
      0.050  0.1557E+01  0.3354E+02
      0.163  0.1143E+01  0.3367E+02
      0.276  0.1107E+01  0.3379E+02
      0.389  0.1404E+01  0.3395E+02
      0.502  0.2228E+01  0.3420E+02
      0.615  0.2353E+01  0.3447E+02
      0.728  0.2305E+01  0.3473E+02
      0.841  0.2230E+01  0.3498E+02
      0.954  0.2521E+01  0.3526E+02
      1.067  0.1993E+01  0.3549E+02
      1.180  0.1645E+01  0.3568E+02
      1.293  0.1512E+01  0.3585E+02
      1.406  0.1487E+01  0.3601E+02
      1.519  0.1683E+01  0.3620E+02
      1.632  0.1855E+01  0.3641E+02
      1.745  0.1517E+01  0.3659E+02
      1.858  0.2151E+01  0.3683E+02
      1.971  0.2688E+01  0.3713E+02
      2.084  0.2165E+01  0.3738E+02
      2.197  0.2247E+01  0.3763E+02
      2.310  0.3206E+01  0.3799E+02
      2.423  0.3011E+01  0.3833E+02
      2.536  0.2519E+01  0.3862E+02
      2.649  0.3219E+01  0.3898E+02
      2.762  0.5075E+01  0.3956E+02
      2.875  0.4522E+01  0.4007E+02
      2.989  0.3636E+01  0.4048E+02
      3.102  0.3243E+01  0.4085E+02
      3.215  0.3025E+01  0.4119E+02
      3.328  0.2824E+01  0.4151E+02
      3.441  0.2700E+01  0.4181E+02
      3.554  0.4032E+01  0.4227E+02
      3.667  0.5245E+01  0.4286E+02
      3.780  0.4477E+01  0.4337E+02
      3.893  0.4027E+01  0.4382E+02
      4.006  0.3900E+01  0.4426E+02
      4.119  0.4878E+01  0.4481E+02
      4.232  0.6267E+01  0.4552E+02
      4.345  0.6006E+01  0.4620E+02
      4.458  0.5159E+01  0.4678E+02
      4.571  0.4334E+01  0.4727E+02
      4.684  0.4613E+01  0.4779E+02
      4.797  0.5410E+01  0.4841E+02
      4.910  0.6483E+01  0.4914E+02
      5.023  0.8043E+01  0.5005E+02
      5.136  0.8707E+01  0.5103E+02
      5.249  0.6856E+01  0.5181E+02
      5.362  0.5932E+01  0.5248E+02
      5.475  0.5620E+01  0.5311E+02
      5.588  0.5706E+01  0.5376E+02
      5.701  0.4218E+01  0.5423E+02
      5.814  0.3668E+01  0.5465E+02
      5.927  0.4760E+01  0.5519E+02
      6.040  0.5458E+01  0.5580E+02
      6.153  0.5147E+01  0.5639E+02
      6.266  0.6843E+01  0.5716E+02
      6.379  0.9177E+01  0.5820E+02
      6.492  0.8600E+01  0.5917E+02
      6.606  0.7232E+01  0.5999E+02
      6.719  0.7758E+01  0.6086E+02
      6.832  0.1144E+02  0.6216E+02
      6.945  0.1069E+02  0.6337E+02
      7.058  0.8281E+01  0.6430E+02
      7.171  0.8368E+01  0.6525E+02
      7.284  0.8059E+01  0.6616E+02
      7.397  0.7951E+01  0.6706E+02
      7.510  0.7254E+01  0.6788E+02
      7.623  0.6777E+01  0.6864E+02
      7.736  0.7547E+01  0.6950E+02
      7.849  0.9667E+01  0.7059E+02
      7.962  0.1013E+02  0.7173E+02
      8.075  0.9321E+01  0.7279E+02
      8.188  0.8861E+01  0.7379E+02
      8.301  0.8071E+01  0.7470E+02
      8.414  0.7957E+01  0.7560E+02
      8.527  0.7837E+01  0.7649E+02
      8.640  0.7515E+01  0.7734E+02
      8.753  0.7482E+01  0.7818E+02
      8.866  0.7730E+01  0.7905E+02
      8.979  0.7903E+01  0.7995E+02
      9.092  0.7142E+01  0.8076E+02
      9.205  0.7752E+01  0.8163E+02
      9.318  0.9784E+01  0.8274E+02
      9.431  0.9999E+01  0.8387E+02
      9.544  0.9360E+01  0.8493E+02
      9.657  0.8908E+01  0.8593E+02
      9.770  0.9452E+01  0.8700E+02
      9.883  0.9733E+01  0.8810E+02
      9.996  0.8803E+01  0.8910E+02
     10.109  0.9876E+01  0.9021E+02
     10.222  0.8819E+01  0.9121E+02
     10.336  0.7854E+01  0.9210E+02
     10.449  0.7126E+01  0.9290E+02
     10.562  0.7895E+01  0.9379E+02
     10.675  0.9016E+01  0.9481E+02
     10.788  0.6130E+01  0.9551E+02
     10.901  0.3263E+01  0.9588E+02
     11.014  0.1008E+01  0.9599E+02
     11.127  0.9238E-01  0.9600E+02
     11.240  0.1372E-02  0.9600E+02
     11.353  0.2422E-05  0.9600E+02
     11.466  0.4393E-09  0.9600E+02
     11.579  0.7449E-14  0.9600E+02
     11.692  0.0000E+00  0.9600E+02
     11.805  0.0000E+00  0.9600E+02
     11.918  0.0000E+00  0.9600E+02
     12.031  0.0000E+00  0.9600E+02
     12.144  0.0000E+00  0.9600E+02
     12.257  0.0000E+00  0.9600E+02
     12.370  0.0000E+00  0.9600E+02
     12.483  0.0000E+00  0.9600E+02
     12.48311254    -21.42610972  301     -3.47164885      1.00000000
    -21.426  0.0000E+00  0.0000E+00  0.0000E+00  0.0000E+00  0.0000E+00  0.0000E+00  0.0000E+00  0.0000E+00  0.0000E+00
    -21.313  0.0000E+00  0.0000E+00  0.0000E+00  0.0000E+00  0.0000E+00  0.0000E+00  0.0000E+00  0.0000E+00  0.0000E+00
    -21.200  0.0000E+00  0.0000E+00  0.0000E+00  0.0000E+00  0.0000E+00  0.0000E+00  0.0000E+00  0.0000E+00  0.0000E+00
    -21.087  0.0000E+00  0.0000E+00  0.0000E+00  0.0000E+00  0.0000E+00  0.0000E+00  0.0000E+00  0.0000E+00  0.0000E+00
    -20.974  0.0000E+00  0.0000E+00  0.0000E+00  0.0000E+00  0.0000E+00  0.0000E+00  0.0000E+00  0.0000E+00  0.0000E+00
    -20.861  0.0000E+00  0.0000E+00  0.0000E+00  0.0000E+00  0.0000E+00  0.0000E+00  0.0000E+00  0.0000E+00  0.0000E+00
    -20.748  0.0000E+00  0.0000E+00  0.0000E+00  0.0000E+00  0.0000E+00  0.0000E+00  0.0000E+00  0.0000E+00  0.0000E+00
    -20.635  0.0000E+00  0.0000E+00  0.0000E+00  0.0000E+00  0.0000E+00  0.0000E+00  0.0000E+00  0.0000E+00  0.0000E+00
    -20.522  0.0000E+00  0.0000E+00  0.0000E+00  0.0000E+00  0.0000E+00  0.0000E+00  0.0000E+00  0.0000E+00  0.0000E+00
    -20.409  0.1790E-14  0.2687E-17  0.1945E-28  0.4179E-18  0.0000E+00  0.0000E+00  0.0000E+00  0.0000E+00  0.0000E+00
    -20.296  0.9741E-10  0.1846E-12  0.1030E-23  0.2878E-13  0.0000E+00  0.0000E+00  0.0000E+00  0.0000E+00  0.0000E+00
    -20.183  0.4525E-06  0.1143E-08  0.4623E-20  0.1787E-09  0.0000E+00  0.0000E+00  0.0000E+00  0.0000E+00  0.0000E+00
    -20.070  0.1911E-03  0.7004E-06  0.1873E-17  0.1100E-06  0.0000E+00  0.0000E+00  0.0000E+00  0.0000E+00  0.0000E+00
    -19.957  0.8344E-02  0.5062E-04  0.7743E-16  0.8020E-05  0.0000E+00  0.0000E+00  0.0000E+00  0.0000E+00  0.0000E+00
    -19.844  0.4815E-01  0.5962E-03  0.4060E-15  0.9623E-04  0.0000E+00  0.0000E+00  0.0000E+00  0.0000E+00  0.0000E+00
    -19.731  0.5749E-01  0.1924E-02  0.3938E-15  0.3235E-03  0.0000E+00  0.0000E+00  0.0000E+00  0.0000E+00  0.0000E+00
    -19.618  0.3521E-01  0.3268E-02  0.2014E-15  0.5933E-03  0.0000E+00  0.0000E+00  0.0000E+00  0.0000E+00  0.0000E+00
    -19.505  0.2397E-01  0.4735E-02  0.1298E-15  0.9781E-03  0.0000E+00  0.0000E+00  0.0000E+00  0.0000E+00  0.0000E+00
    -19.392  0.1881E-01  0.8980E-02  0.1039E-15  0.2532E-02  0.0000E+00  0.0000E+00  0.0000E+00  0.0000E+00  0.0000E+00
    -19.279  0.1854E-01  0.2287E-01  0.1517E-15  0.9374E-02  0.0000E+00  0.0000E+00  0.0000E+00  0.0000E+00  0.0000E+00
    -19.165  0.9610E-02  0.2170E-01  0.1786E-15  0.1175E-01  0.0000E+00  0.0000E+00  0.0000E+00  0.0000E+00  0.0000E+00
    -19.052  0.1083E-02  0.4337E-02  0.4757E-16  0.2870E-02  0.0000E+00  0.0000E+00  0.0000E+00  0.0000E+00  0.0000E+00
    -18.939  0.1954E-04  0.1337E-03  0.1765E-17  0.9936E-04  0.0000E+00  0.0000E+00  0.0000E+00  0.0000E+00  0.0000E+00
    -18.826  0.4544E-07  0.4725E-06  0.6956E-20  0.3735E-06  0.0000E+00  0.0000E+00  0.0000E+00  0.0000E+00  0.0000E+00
    -18.713  0.1121E-10  0.1592E-09  0.2506E-23  0.1305E-09  0.0000E+00  0.0000E+00  0.0000E+00  0.0000E+00  0.0000E+00
    -18.600  0.2587E-15  0.4683E-14  0.7694E-28  0.3933E-14  0.0000E+00  0.0000E+00  0.0000E+00  0.0000E+00  0.0000E+00
    -18.487  0.0000E+00  0.0000E+00  0.0000E+00  0.0000E+00  0.0000E+00  0.0000E+00  0.0000E+00  0.0000E+00  0.0000E+00
    -18.374  0.0000E+00  0.0000E+00  0.0000E+00  0.0000E+00  0.0000E+00  0.0000E+00  0.0000E+00  0.0000E+00  0.0000E+00
    -18.261  0.0000E+00  0.0000E+00  0.0000E+00  0.0000E+00  0.0000E+00  0.0000E+00  0.0000E+00  0.0000E+00  0.0000E+00
    -18.148  0.1509E-14  0.9513E-16  0.1000E-29  0.3273E-16  0.0000E+00  0.0000E+00  0.0000E+00  0.0000E+00  0.0000E+00
    -18.035  0.9887E-10  0.6250E-11  0.6450E-25  0.2168E-11  0.0000E+00  0.0000E+00  0.0000E+00  0.0000E+00  0.0000E+00
    -17.922  0.5514E-06  0.3502E-07  0.3539E-21  0.1230E-07  0.0000E+00  0.0000E+00  0.0000E+00  0.0000E+00  0.0000E+00
    -17.809  0.2780E-03  0.1779E-04  0.1766E-18  0.6385E-05  0.0000E+00  0.0000E+00  0.0000E+00  0.0000E+00  0.0000E+00
    -17.696  0.1431E-01  0.9308E-03  0.9208E-17  0.3483E-03  0.0000E+00  0.0000E+00  0.0000E+00  0.0000E+00  0.0000E+00
    -17.583  0.9542E-01  0.6451E-02  0.6707E-16  0.2660E-02  0.0000E+00  0.0000E+00  0.0000E+00  0.0000E+00  0.0000E+00
    -17.470  0.1308E+00  0.9717E-02  0.1234E-15  0.5588E-02  0.0000E+00  0.0000E+00  0.0000E+00  0.0000E+00  0.0000E+00
    -17.357  0.1135E+00  0.9030E-02  0.1371E-15  0.1082E-01  0.0000E+00  0.0000E+00  0.0000E+00  0.0000E+00  0.0000E+00
    -17.244  0.1059E+00  0.9773E-02  0.1311E-15  0.1420E-01  0.0000E+00  0.0000E+00  0.0000E+00  0.0000E+00  0.0000E+00
    -17.131  0.7469E-01  0.9347E-02  0.9848E-16  0.1221E-01  0.0000E+00  0.0000E+00  0.0000E+00  0.0000E+00  0.0000E+00
    -17.018  0.5530E-01  0.9141E-02  0.6117E-16  0.1149E-01  0.0000E+00  0.0000E+00  0.0000E+00  0.0000E+00  0.0000E+00
    -16.905  0.4450E-01  0.9513E-02  0.5766E-16  0.1177E-01  0.0000E+00  0.0000E+00  0.0000E+00  0.0000E+00  0.0000E+00
    -16.792  0.3651E-01  0.1012E-01  0.5279E-16  0.1257E-01  0.0000E+00  0.0000E+00  0.0000E+00  0.0000E+00  0.0000E+00
    -16.679  0.2983E-01  0.1100E-01  0.4493E-16  0.1414E-01  0.0000E+00  0.0000E+00  0.0000E+00  0.0000E+00  0.0000E+00
    -16.566  0.2362E-01  0.1295E-01  0.2931E-16  0.1899E-01  0.0000E+00  0.0000E+00  0.0000E+00  0.0000E+00  0.0000E+00
    -16.453  0.1712E-01  0.1859E-01  0.3505E-16  0.3503E-01  0.0000E+00  0.0000E+00  0.0000E+00  0.0000E+00  0.0000E+00
    -16.340  0.1151E-01  0.1999E-01  0.4354E-16  0.3820E-01  0.0000E+00  0.0000E+00  0.0000E+00  0.0000E+00  0.0000E+00
    -16.227  0.8240E-02  0.1614E-01  0.3826E-16  0.2511E-01  0.0000E+00  0.0000E+00  0.0000E+00  0.0000E+00  0.0000E+00
    -16.114  0.5661E-02  0.1630E-01  0.5094E-16  0.2274E-01  0.0000E+00  0.0000E+00  0.0000E+00  0.0000E+00  0.0000E+00
    -16.001  0.2934E-02  0.1880E-01  0.1250E-15  0.2635E-01  0.0000E+00  0.0000E+00  0.0000E+00  0.0000E+00  0.0000E+00
    -15.888  0.6994E-03  0.1065E-01  0.1017E-15  0.1515E-01  0.0000E+00  0.0000E+00  0.0000E+00  0.0000E+00  0.0000E+00
    -15.775  0.4099E-04  0.1206E-02  0.1391E-16  0.1718E-02  0.0000E+00  0.0000E+00  0.0000E+00  0.0000E+00  0.0000E+00
    -15.662  0.3649E-06  0.1738E-04  0.2289E-18  0.2464E-04  0.0000E+00  0.0000E+00  0.0000E+00  0.0000E+00  0.0000E+00
    -15.549  0.3683E-09  0.2521E-07  0.3635E-21  0.3549E-07  0.0000E+00  0.0000E+00  0.0000E+00  0.0000E+00  0.0000E+00
    -15.435  0.3603E-13  0.3278E-11  0.5016E-25  0.4581E-11  0.0000E+00  0.0000E+00  0.0000E+00  0.0000E+00  0.0000E+00
    -15.322  0.2980E-18  0.3596E-16  0.5728E-30  0.4943E-16  0.0000E+00  0.0000E+00  0.0000E+00  0.0000E+00  0.0000E+00
    -15.209  0.0000E+00  0.0000E+00  0.0000E+00  0.0000E+00  0.0000E+00  0.0000E+00  0.0000E+00  0.0000E+00  0.0000E+00
    -15.096  0.0000E+00  0.0000E+00  0.0000E+00  0.0000E+00  0.0000E+00  0.0000E+00  0.0000E+00  0.0000E+00  0.0000E+00
    -14.983  0.0000E+00  0.0000E+00  0.0000E+00  0.0000E+00  0.0000E+00  0.0000E+00  0.0000E+00  0.0000E+00  0.0000E+00
    -14.870  0.0000E+00  0.0000E+00  0.0000E+00  0.0000E+00  0.0000E+00  0.0000E+00  0.0000E+00  0.0000E+00  0.0000E+00
    -14.757  0.2807E-16  0.2576E-18  0.6832E-33  0.8997E-19  0.0000E+00  0.0000E+00  0.0000E+00  0.0000E+00  0.0000E+00
    -14.644  0.4265E-11  0.4066E-13  0.1158E-27  0.1454E-13  0.0000E+00  0.0000E+00  0.0000E+00  0.0000E+00  0.0000E+00
    -14.531  0.5399E-07  0.5371E-09  0.1612E-23  0.1952E-09  0.0000E+00  0.0000E+00  0.0000E+00  0.0000E+00  0.0000E+00
    -14.418  0.6023E-04  0.6424E-06  0.2023E-20  0.2390E-06  0.0000E+00  0.0000E+00  0.0000E+00  0.0000E+00  0.0000E+00
    -14.305  0.6520E-02  0.7877E-04  0.2582E-18  0.3041E-04  0.0000E+00  0.0000E+00  0.0000E+00  0.0000E+00  0.0000E+00
    -14.192  0.8298E-01  0.1285E-02  0.4083E-17  0.5243E-03  0.0000E+00  0.0000E+00  0.0000E+00  0.0000E+00  0.0000E+00
    -14.079  0.1764E+00  0.4613E-02  0.1020E-16  0.2006E-02  0.0000E+00  0.0000E+00  0.0000E+00  0.0000E+00  0.0000E+00
    -13.966  0.1272E+00  0.7915E-02  0.7121E-17  0.3523E-02  0.0000E+00  0.0000E+00  0.0000E+00  0.0000E+00  0.0000E+00
    -13.853  0.8678E-01  0.1321E-01  0.6191E-17  0.5366E-02  0.0000E+00  0.0000E+00  0.0000E+00  0.0000E+00  0.0000E+00
    -13.740  0.9085E-01  0.4233E-01  0.2093E-16  0.1436E-01  0.0000E+00  0.0000E+00  0.0000E+00  0.0000E+00  0.0000E+00
    -13.627  0.1107E+00  0.9408E-01  0.6437E-16  0.5248E-01  0.0000E+00  0.0000E+00  0.0000E+00  0.0000E+00  0.0000E+00
    -13.514  0.7608E-01  0.4928E-01  0.5566E-16  0.6940E-01  0.0000E+00  0.0000E+00  0.0000E+00  0.0000E+00  0.0000E+00
    -13.401  0.5704E-01  0.9847E-02  0.3249E-16  0.4857E-01  0.0000E+00  0.0000E+00  0.0000E+00  0.0000E+00  0.0000E+00
    -13.288  0.5270E-01  0.5462E-02  0.1242E-16  0.3903E-01  0.0000E+00  0.0000E+00  0.0000E+00  0.0000E+00  0.0000E+00
    -13.175  0.5132E-01  0.4889E-02  0.9967E-17  0.3476E-01  0.0000E+00  0.0000E+00  0.0000E+00  0.0000E+00  0.0000E+00
    -13.062  0.5122E-01  0.4899E-02  0.7378E-17  0.3178E-01  0.0000E+00  0.0000E+00  0.0000E+00  0.0000E+00  0.0000E+00
    -12.949  0.5298E-01  0.5409E-02  0.6147E-17  0.2963E-01  0.0000E+00  0.0000E+00  0.0000E+00  0.0000E+00  0.0000E+00
    -12.836  0.6030E-01  0.6589E-02  0.6134E-17  0.2908E-01  0.0000E+00  0.0000E+00  0.0000E+00  0.0000E+00  0.0000E+00
    -12.723  0.7015E-01  0.7147E-02  0.6155E-17  0.3119E-01  0.0000E+00  0.0000E+00  0.0000E+00  0.0000E+00  0.0000E+00
    -12.610  0.9413E-01  0.6527E-02  0.1704E-16  0.2683E-01  0.0000E+00  0.0000E+00  0.0000E+00  0.0000E+00  0.0000E+00
    -12.497  0.1478E+00  0.6138E-02  0.3255E-16  0.1510E-01  0.0000E+00  0.0000E+00  0.0000E+00  0.0000E+00  0.0000E+00
    -12.384  0.1226E+00  0.6766E-02  0.1615E-16  0.1312E-01  0.0000E+00  0.0000E+00  0.0000E+00  0.0000E+00  0.0000E+00
    -12.271  0.8441E-01  0.7479E-02  0.1388E-16  0.1430E-01  0.0000E+00  0.0000E+00  0.0000E+00  0.0000E+00  0.0000E+00
    -12.158  0.6754E-01  0.8250E-02  0.8296E-17  0.1617E-01  0.0000E+00  0.0000E+00  0.0000E+00  0.0000E+00  0.0000E+00
    -12.045  0.5702E-01  0.9458E-02  0.3412E-17  0.1957E-01  0.0000E+00  0.0000E+00  0.0000E+00  0.0000E+00  0.0000E+00
    -11.932  0.4842E-01  0.1224E-01  0.1639E-17  0.2794E-01  0.0000E+00  0.0000E+00  0.0000E+00  0.0000E+00  0.0000E+00
    -11.818  0.4015E-01  0.1311E-01  0.1134E-17  0.3080E-01  0.0000E+00  0.0000E+00  0.0000E+00  0.0000E+00  0.0000E+00
    -11.705  0.3451E-01  0.6107E-02  0.5648E-18  0.9743E-02  0.0000E+00  0.0000E+00  0.0000E+00  0.0000E+00  0.0000E+00
    -11.592  0.3194E-01  0.3423E-02  0.7278E-18  0.1197E-02  0.0000E+00  0.0000E+00  0.0000E+00  0.0000E+00  0.0000E+00
    -11.479  0.3033E-01  0.3496E-02  0.1702E-17  0.8336E-03  0.0000E+00  0.0000E+00  0.0000E+00  0.0000E+00  0.0000E+00
    -11.366  0.3664E-01  0.3722E-02  0.9823E-17  0.8654E-03  0.0000E+00  0.0000E+00  0.0000E+00  0.0000E+00  0.0000E+00
    -11.253  0.1215E+00  0.4356E-02  0.8830E-16  0.9569E-03  0.0000E+00  0.0000E+00  0.0000E+00  0.0000E+00  0.0000E+00
    -11.140  0.2178E+00  0.6254E-02  0.1131E-15  0.1245E-02  0.0000E+00  0.0000E+00  0.0000E+00  0.0000E+00  0.0000E+00
    -11.027  0.1629E+00  0.9233E-02  0.2652E-16  0.2386E-02  0.0000E+00  0.0000E+00  0.0000E+00  0.0000E+00  0.0000E+00
    -10.914  0.1209E+00  0.2487E-01  0.8177E-17  0.1562E-01  0.0000E+00  0.0000E+00  0.0000E+00  0.0000E+00  0.0000E+00
    -10.801  0.1028E+00  0.5210E-01  0.7829E-17  0.3813E-01  0.0000E+00  0.0000E+00  0.0000E+00  0.0000E+00  0.0000E+00
    -10.688  0.9175E-01  0.4758E-01  0.5652E-17  0.3071E-01  0.0000E+00  0.0000E+00  0.0000E+00  0.0000E+00  0.0000E+00
    -10.575  0.8389E-01  0.3978E-01  0.3575E-17  0.2192E-01  0.0000E+00  0.0000E+00  0.0000E+00  0.0000E+00  0.0000E+00
    -10.462  0.7797E-01  0.3758E-01  0.2928E-17  0.1853E-01  0.0000E+00  0.0000E+00  0.0000E+00  0.0000E+00  0.0000E+00
    -10.349  0.7364E-01  0.3873E-01  0.2118E-17  0.1680E-01  0.0000E+00  0.0000E+00  0.0000E+00  0.0000E+00  0.0000E+00
    -10.236  0.6931E-01  0.3903E-01  0.2204E-17  0.1576E-01  0.0000E+00  0.0000E+00  0.0000E+00  0.0000E+00  0.0000E+00
    -10.123  0.6257E-01  0.2772E-01  0.2703E-17  0.1615E-01  0.0000E+00  0.0000E+00  0.0000E+00  0.0000E+00  0.0000E+00
    -10.010  0.6005E-01  0.2179E-01  0.2181E-17  0.2142E-01  0.0000E+00  0.0000E+00  0.0000E+00  0.0000E+00  0.0000E+00
     -9.897  0.7115E-01  0.1846E-01  0.1419E-17  0.1871E-01  0.0000E+00  0.0000E+00  0.0000E+00  0.0000E+00  0.0000E+00
     -9.784  0.1384E+00  0.1700E-01  0.1615E-17  0.1281E-01  0.0000E+00  0.0000E+00  0.0000E+00  0.0000E+00  0.0000E+00
     -9.671  0.1675E+00  0.1803E-01  0.2270E-17  0.1216E-01  0.0000E+00  0.0000E+00  0.0000E+00  0.0000E+00  0.0000E+00
     -9.558  0.1179E+00  0.1757E-01  0.2929E-17  0.1067E-01  0.0000E+00  0.0000E+00  0.0000E+00  0.0000E+00  0.0000E+00
     -9.445  0.9434E-01  0.1750E-01  0.3278E-17  0.9990E-02  0.0000E+00  0.0000E+00  0.0000E+00  0.0000E+00  0.0000E+00
     -9.332  0.8416E-01  0.1863E-01  0.2998E-17  0.1003E-01  0.0000E+00  0.0000E+00  0.0000E+00  0.0000E+00  0.0000E+00
     -9.219  0.7892E-01  0.3777E-01  0.8962E-15  0.1622E-01  0.0000E+00  0.0000E+00  0.0000E+00  0.0000E+00  0.0000E+00
     -9.106  0.7874E-01  0.7831E-01  0.5547E-10  0.2977E-01  0.0000E+00  0.0000E+00  0.0000E+00  0.0000E+00  0.0000E+00
     -8.993  0.8269E-01  0.7419E-01  0.2930E-06  0.2847E-01  0.0000E+00  0.0000E+00  0.0000E+00  0.0000E+00  0.0000E+00
     -8.880  0.8370E-01  0.6055E-01  0.1401E-03  0.2385E-01  0.0000E+00  0.0000E+00  0.0000E+00  0.0000E+00  0.0000E+00
     -8.767  0.6706E-01  0.3992E-01  0.6866E-02  0.1684E-01  0.0000E+00  0.0000E+00  0.0000E+00  0.0000E+00  0.0000E+00
     -8.654  0.6127E-01  0.2971E-01  0.4389E-01  0.1329E-01  0.0000E+00  0.0000E+00  0.0000E+00  0.0000E+00  0.0000E+00
     -8.541  0.6690E-01  0.2711E-01  0.5704E-01  0.1238E-01  0.0000E+00  0.0000E+00  0.0000E+00  0.0000E+00  0.0000E+00
     -8.428  0.8477E-01  0.2594E-01  0.3731E-01  0.1251E-01  0.0000E+00  0.0000E+00  0.0000E+00  0.0000E+00  0.0000E+00
     -8.315  0.1142E+00  0.2394E-01  0.2749E-01  0.1419E-01  0.0000E+00  0.0000E+00  0.0000E+00  0.0000E+00  0.0000E+00
     -8.202  0.8947E-01  0.1854E-01  0.2252E-01  0.1457E-01  0.0000E+00  0.0000E+00  0.0000E+00  0.0000E+00  0.0000E+00
     -8.088  0.4531E-01  0.3247E-01  0.1916E-01  0.1595E-01  0.0000E+00  0.0000E+00  0.0000E+00  0.0000E+00  0.0000E+00
     -7.975  0.3220E-01  0.4339E-01  0.1658E-01  0.2381E-01  0.0000E+00  0.0000E+00  0.0000E+00  0.0000E+00  0.0000E+00
     -7.862  0.4036E-01  0.4273E-01  0.1445E-01  0.2482E-01  0.0000E+00  0.0000E+00  0.0000E+00  0.0000E+00  0.0000E+00
     -7.749  0.5537E-01  0.4153E-01  0.1284E-01  0.1959E-01  0.0000E+00  0.0000E+00  0.0000E+00  0.0000E+00  0.0000E+00
     -7.636  0.1154E+00  0.5191E-01  0.1532E-01  0.1941E-01  0.0000E+00  0.0000E+00  0.0000E+00  0.0000E+00  0.0000E+00
     -7.523  0.2420E+00  0.7416E-01  0.2129E-01  0.2348E-01  0.0000E+00  0.0000E+00  0.0000E+00  0.0000E+00  0.0000E+00
     -7.410  0.1195E+00  0.7549E-01  0.1249E-01  0.2226E-01  0.0000E+00  0.0000E+00  0.0000E+00  0.0000E+00  0.0000E+00
     -7.297  0.1887E-01  0.2676E+00  0.2918E-02  0.1017E+00  0.0000E+00  0.0000E+00  0.0000E+00  0.0000E+00  0.0000E+00
     -7.184  0.1299E-01  0.4123E+00  0.2027E-03  0.1715E+00  0.0000E+00  0.0000E+00  0.0000E+00  0.0000E+00  0.0000E+00
     -7.071  0.1336E-01  0.1745E+00  0.2358E-05  0.5503E-01  0.0000E+00  0.0000E+00  0.0000E+00  0.0000E+00  0.0000E+00
     -6.958  0.1272E-01  0.9206E-01  0.2355E-06  0.1531E-01  0.0000E+00  0.0000E+00  0.0000E+00  0.0000E+00  0.0000E+00
     -6.845  0.1161E-01  0.8613E-01  0.1449E-03  0.2153E-01  0.0000E+00  0.0000E+00  0.0000E+00  0.0000E+00  0.0000E+00
     -6.732  0.1033E-01  0.8513E-01  0.9095E-02  0.3697E-01  0.0000E+00  0.0000E+00  0.0000E+00  0.0000E+00  0.0000E+00
     -6.619  0.9127E-02  0.8558E-01  0.7209E-01  0.5941E-01  0.0000E+00  0.0000E+00  0.0000E+00  0.0000E+00  0.0000E+00
     -6.506  0.1093E-01  0.1031E+00  0.1092E+00  0.1093E+00  0.0000E+00  0.0000E+00  0.0000E+00  0.0000E+00  0.0000E+00
     -6.393  0.2664E-01  0.2040E+00  0.7515E-01  0.3338E+00  0.0000E+00  0.0000E+00  0.0000E+00  0.0000E+00  0.0000E+00
     -6.280  0.3597E-01  0.2936E+00  0.6913E-01  0.5693E+00  0.0000E+00  0.0000E+00  0.0000E+00  0.0000E+00  0.0000E+00
     -6.167  0.2758E-01  0.1786E+00  0.8503E-01  0.3545E+00  0.0000E+00  0.0000E+00  0.0000E+00  0.0000E+00  0.0000E+00
     -6.054  0.2052E-01  0.9726E-01  0.7158E-01  0.2004E+00  0.0000E+00  0.0000E+00  0.0000E+00  0.0000E+00  0.0000E+00
     -5.941  0.1721E-01  0.5637E-01  0.5349E-01  0.9674E-01  0.0000E+00  0.0000E+00  0.0000E+00  0.0000E+00  0.0000E+00
     -5.828  0.1535E-01  0.4331E-01  0.4497E-01  0.6270E-01  0.0000E+00  0.0000E+00  0.0000E+00  0.0000E+00  0.0000E+00
     -5.715  0.1389E-01  0.4179E-01  0.3964E-01  0.6060E-01  0.0000E+00  0.0000E+00  0.0000E+00  0.0000E+00  0.0000E+00
     -5.602  0.1262E-01  0.4156E-01  0.3553E-01  0.6126E-01  0.0000E+00  0.0000E+00  0.0000E+00  0.0000E+00  0.0000E+00
     -5.489  0.1147E-01  0.4200E-01  0.3209E-01  0.6327E-01  0.0000E+00  0.0000E+00  0.0000E+00  0.0000E+00  0.0000E+00
     -5.376  0.1037E-01  0.4317E-01  0.2903E-01  0.6702E-01  0.0000E+00  0.0000E+00  0.0000E+00  0.0000E+00  0.0000E+00
     -5.263  0.9290E-02  0.4549E-01  0.2618E-01  0.7388E-01  0.0000E+00  0.0000E+00  0.0000E+00  0.0000E+00  0.0000E+00
     -5.150  0.8158E-02  0.5122E-01  0.2342E-01  0.9079E-01  0.0000E+00  0.0000E+00  0.0000E+00  0.0000E+00  0.0000E+00
     -5.037  0.6828E-02  0.6819E-01  0.2060E-01  0.1414E+00  0.0000E+00  0.0000E+00  0.0000E+00  0.0000E+00  0.0000E+00
     -4.924  0.5486E-02  0.7165E-01  0.1754E-01  0.1511E+00  0.0000E+00  0.0000E+00  0.0000E+00  0.0000E+00  0.0000E+00
     -4.811  0.4749E-02  0.5094E-01  0.1382E-01  0.8716E-01  0.0000E+00  0.0000E+00  0.0000E+00  0.0000E+00  0.0000E+00
     -4.698  0.4319E-02  0.4468E-01  0.9319E-02  0.6583E-01  0.0000E+00  0.0000E+00  0.0000E+00  0.0000E+00  0.0000E+00
     -4.585  0.3920E-02  0.4435E-01  0.5622E-02  0.6181E-01  0.0000E+00  0.0000E+00  0.0000E+00  0.0000E+00  0.0000E+00
     -4.471  0.3527E-02  0.4536E-01  0.2501E-02  0.6110E-01  0.0000E+00  0.0000E+00  0.0000E+00  0.0000E+00  0.0000E+00
     -4.358  0.3135E-02  0.4735E-01  0.4310E-03  0.6232E-01  0.0000E+00  0.0000E+00  0.0000E+00  0.0000E+00  0.0000E+00
     -4.245  0.2737E-02  0.5051E-01  0.1583E-04  0.6545E-01  0.0000E+00  0.0000E+00  0.0000E+00  0.0000E+00  0.0000E+00
     -4.132  0.2325E-02  0.5552E-01  0.8169E-07  0.7128E-01  0.0000E+00  0.0000E+00  0.0000E+00  0.0000E+00  0.0000E+00
     -4.019  0.1884E-02  0.6445E-01  0.4608E-10  0.8246E-01  0.0000E+00  0.0000E+00  0.0000E+00  0.0000E+00  0.0000E+00
     -3.906  0.1375E-02  0.8636E-01  0.2530E-14  0.1107E+00  0.0000E+00  0.0000E+00  0.0000E+00  0.0000E+00  0.0000E+00
     -3.793  0.7168E-03  0.1172E+00  0.7088E-16  0.1501E+00  0.0000E+00  0.0000E+00  0.0000E+00  0.0000E+00  0.0000E+00