PROCAR lm decomposed
# of k-points:  192         # of bands:   24         # of ions:    8

 k-point     1 :    0.33300000 0.33300000 0.00000000     weight = 0.00520833

band     1 # energy  -19.21492007 # occ.  2.00000000
 
ion      s     py     pz     px    dxy    dyz    dz2    dxz  x2-y2    tot
    1  0.000  0.005  0.000  0.005  0.000  0.000  0.000  0.000  0.000  0.009
    2  0.000  0.005  0.000  0.005  0.000  0.000  0.000  0.000  0.000  0.009
    3  0.096  0.008  0.000  0.003  0.000  0.000  0.000  0.000  0.000  0.107
    4  0.096  0.008  0.000  0.003  0.000  0.000  0.000  0.000  0.000  0.107
    5  0.096  0.000  0.000  0.011  0.000  0.000  0.000  0.000  0.000  0.107
    6  0.096  0.000  0.000  0.011  0.000  0.000  0.000  0.000  0.000  0.107
    7  0.096  0.008  0.000  0.003  0.000  0.000  0.000  0.000  0.000  0.107
    8  0.096  0.008  0.000  0.003  0.000  0.000  0.000  0.000  0.000  0.107
tot    0.577  0.042  0.000  0.042  0.000  0.000  0.000  0.000  0.000  0.661
 
band     2 # energy  -17.28541007 # occ.  2.00000000
 
ion      s     py     pz     px    dxy    dyz    dz2    dxz  x2-y2    tot
    1  0.040  0.005  0.000  0.005  0.000  0.000  0.000  0.000  0.000  0.050
    2  0.040  0.005  0.000  0.005  0.000  0.000  0.000  0.000  0.000  0.050
    3  0.122  0.001  0.000  0.006  0.000  0.000  0.000  0.000  0.000  0.129
    4  0.121  0.001  0.000  0.006  0.000  0.000  0.000  0.000  0.000  0.128
    5  0.003  0.022  0.000  0.001  0.000  0.000  0.000  0.000  0.000  0.025
    6  0.003  0.022  0.000  0.001  0.000  0.000  0.000  0.000  0.000  0.026
    7  0.121  0.001  0.000  0.006  0.000  0.000  0.000  0.000  0.000  0.128
    8  0.122  0.001  0.000  0.006  0.000  0.000  0.000  0.000  0.000  0.130
tot    0.572  0.059  0.000  0.035  0.000  0.000  0.000  0.000  0.000  0.666
 
band     3 # energy  -17.28301323 # occ.  2.00000000
 
ion      s     py     pz     px    dxy    dyz    dz2    dxz  x2-y2    tot
    1  0.040  0.005  0.000  0.005  0.000  0.000  0.000  0.000  0.000  0.050
    2  0.039  0.005  0.000  0.005  0.000  0.000  0.000  0.000  0.000  0.050
    3  0.042  0.005  0.000  0.012  0.000  0.000  0.000  0.000  0.000  0.059
    4  0.043  0.005  0.000  0.012  0.000  0.000  0.000  0.000  0.000  0.061
    5  0.161  0.002  0.000  0.000  0.000  0.000  0.000  0.000  0.000  0.163
    6  0.161  0.002  0.000  0.000  0.000  0.000  0.000  0.000  0.000  0.163
    7  0.043  0.005  0.000  0.012  0.000  0.000  0.000  0.000  0.000  0.061
    8  0.042  0.005  0.000  0.012  0.000  0.000  0.000  0.000  0.000  0.059
tot    0.572  0.035  0.000  0.059  0.000  0.000  0.000  0.000  0.000  0.666
 
band     4 # energy  -12.84744153 # occ.  2.00000000
 
ion      s     py     pz     px    dxy    dyz    dz2    dxz  x2-y2    tot
    1  0.053  0.005  0.000  0.005  0.000  0.000  0.000  0.000  0.000  0.063
    2  0.053  0.005  0.000  0.005  0.000  0.000  0.000  0.000  0.000  0.063
    3  0.077  0.005  0.000  0.020  0.000  0.000  0.000  0.000  0.000  0.103
    4  0.077  0.005  0.000  0.020  0.000  0.000  0.000  0.000  0.000  0.103
    5  0.016  0.062  0.000  0.010  0.000  0.000  0.000  0.000  0.000  0.089
    6  0.016  0.062  0.000  0.010  0.000  0.000  0.000  0.000  0.000  0.089
    7  0.077  0.005  0.000  0.020  0.000  0.000  0.000  0.000  0.000  0.103
    8  0.077  0.005  0.000  0.020  0.000  0.000  0.000  0.000  0.000  0.103
tot    0.447  0.156  0.000  0.112  0.000  0.000  0.000  0.000  0.000  0.715
 
band     5 # energy  -12.84272498 # occ.  2.00000000
 
ion      s     py     pz     px    dxy    dyz    dz2    dxz  x2-y2    tot
    1  0.053  0.005  0.000  0.005  0.000  0.000  0.000  0.000  0.000  0.063
    2  0.053  0.005  0.000  0.005  0.000  0.000  0.000  0.000  0.000  0.063
    3  0.037  0.023  0.000  0.034  0.000  0.000  0.000  0.000  0.000  0.093
    4  0.037  0.023  0.000  0.034  0.000  0.000  0.000  0.000  0.000  0.094
    5  0.097  0.004  0.000  0.006  0.000  0.000  0.000  0.000  0.000  0.108
    6  0.097  0.005  0.000  0.006  0.000  0.000  0.000  0.000  0.000  0.108
    7  0.037  0.023  0.000  0.034  0.000  0.000  0.000  0.000  0.000  0.094
    8  0.037  0.023  0.000  0.034  0.000  0.000  0.000  0.000  0.000  0.093
tot    0.447  0.112  0.000  0.156  0.000  0.000  0.000  0.000  0.000  0.715
 
band     6 # energy  -10.89358852 # occ.  2.00000000
 
ion      s     py     pz     px    dxy    dyz    dz2    dxz  x2-y2    tot
    1  0.000  0.031  0.000  0.031  0.000  0.000  0.000  0.000  0.000  0.062
    2  0.000  0.031  0.000  0.031  0.000  0.000  0.000  0.000  0.000  0.062
    3  0.000  0.035  0.000  0.050  0.000  0.000  0.000  0.000  0.000  0.085
    4  0.000  0.035  0.000  0.050  0.000  0.000  0.000  0.000  0.000  0.085
    5  0.000  0.058  0.000  0.027  0.000  0.000  0.000  0.000  0.000  0.085
    6  0.000  0.058  0.000  0.027  0.000  0.000  0.000  0.000  0.000  0.085
    7  0.000  0.035  0.000  0.050  0.000  0.000  0.000  0.000  0.000  0.085
    8  0.000  0.035  0.000  0.050  0.000  0.000  0.000  0.000  0.000  0.085
tot    0.002  0.318  0.000  0.317  0.000  0.000  0.000  0.000  0.000  0.637
 
band     7 # energy   -8.38191246 # occ.  2.00000000
 
ion      s     py     pz     px    dxy    dyz    dz2    dxz  x2-y2    tot
    1  0.085  0.006  0.000  0.006  0.000  0.000  0.000  0.000  0.000  0.096
    2  0.086  0.006  0.000  0.005  0.000  0.000  0.000  0.000  0.000  0.097
    3  0.007  0.048  0.000  0.067  0.000  0.000  0.000  0.000  0.000  0.122
    4  0.007  0.048  0.000  0.067  0.000  0.000  0.000  0.000  0.000  0.122
    5  0.015  0.007  0.000  0.010  0.000  0.000  0.000  0.000  0.000  0.032
    6  0.015  0.007  0.000  0.010  0.000  0.000  0.000  0.000  0.000  0.032
    7  0.007  0.048  0.000  0.067  0.000  0.000  0.000  0.000  0.000  0.122
    8  0.007  0.048  0.000  0.067  0.000  0.000  0.000  0.000  0.000  0.122
tot    0.230  0.217  0.000  0.298  0.000  0.000  0.000  0.000  0.000  0.745
 
band     8 # energy   -8.37615511 # occ.  2.00000000
 
ion      s     py     pz     px    dxy    dyz    dz2    dxz  x2-y2    tot
    1  0.086  0.005  0.000  0.006  0.000  0.000  0.000  0.000  0.000  0.097
    2  0.085  0.006  0.000  0.006  0.000  0.000  0.000  0.000  0.000  0.096
    3  0.013  0.046  0.000  0.003  0.000  0.000  0.000  0.000  0.000  0.062
    4  0.012  0.046  0.000  0.004  0.000  0.000  0.000  0.000  0.000  0.062
    5  0.005  0.054  0.000  0.094  0.000  0.000  0.000  0.000  0.000  0.153
    6  0.005  0.054  0.000  0.094  0.000  0.000  0.000  0.000  0.000  0.152
    7  0.013  0.046  0.000  0.004  0.000  0.000  0.000  0.000  0.000  0.062
    8  0.012  0.045  0.000  0.004  0.000  0.000  0.000  0.000  0.000  0.061
tot    0.230  0.301  0.000  0.214  0.000  0.000  0.000  0.000  0.000  0.745
 
band     9 # energy   -8.01987742 # occ.  2.00000000
 
ion      s     py     pz     px    dxy    dyz    dz2    dxz  x2-y2    tot
    1  0.000  0.019  0.000  0.019  0.000  0.000  0.000  0.000  0.000  0.039
    2  0.000  0.019  0.000  0.019  0.000  0.000  0.000  0.000  0.000  0.039
    3  0.005  0.046  0.000  0.054  0.000  0.000  0.000  0.000  0.000  0.105
    4  0.005  0.046  0.000  0.054  0.000  0.000  0.000  0.000  0.000  0.105
    5  0.005  0.056  0.000  0.043  0.000  0.000  0.000  0.000  0.000  0.104
    6  0.005  0.056  0.000  0.043  0.000  0.000  0.000  0.000  0.000  0.104
    7  0.005  0.046  0.000  0.054  0.000  0.000  0.000  0.000  0.000  0.105
    8  0.005  0.046  0.000  0.054  0.000  0.000  0.000  0.000  0.000  0.105
tot    0.028  0.336  0.000  0.342  0.000  0.000  0.000  0.000  0.000  0.705
 
band    10 # energy   -7.37725165 # occ.  2.00000000
 
ion      s     py     pz     px    dxy    dyz    dz2    dxz  x2-y2    tot
    1  0.000  0.000  0.000  0.000  0.000  0.000  0.000  0.000  0.000  0.000
    2  0.000  0.000  0.000  0.000  0.000  0.000  0.000  0.000  0.000  0.000
    3  0.000  0.000  0.073  0.000  0.000  0.000  0.000  0.000  0.000  0.073
    4  0.000  0.000  0.073  0.000  0.000  0.000  0.000  0.000  0.000  0.073
    5  0.000  0.000  0.073  0.000  0.000  0.000  0.000  0.000  0.000  0.073
    6  0.000  0.000  0.073  0.000  0.000  0.000  0.000  0.000  0.000  0.073
    7  0.000  0.000  0.073  0.000  0.000  0.000  0.000  0.000  0.000  0.073
    8  0.000  0.000  0.073  0.000  0.000  0.000  0.000  0.000  0.000  0.073
tot    0.000  0.000  0.438  0.000  0.000  0.000  0.000  0.000  0.000  0.438
 
band    11 # energy   -7.23910538 # occ.  2.00000000
 
ion      s     py     pz     px    dxy    dyz    dz2    dxz  x2-y2    tot
    1  0.000  0.078  0.000  0.077  0.000  0.000  0.000  0.000  0.000  0.155
    2  0.000  0.078  0.000  0.077  0.000  0.000  0.000  0.000  0.000  0.155
    3  0.045  0.022  0.000  0.007  0.000  0.000  0.000  0.000  0.000  0.075
    4  0.045  0.022  0.000  0.007  0.000  0.000  0.000  0.000  0.000  0.075
    5  0.045  0.000  0.000  0.029  0.000  0.000  0.000  0.000  0.000  0.074
    6  0.045  0.000  0.000  0.029  0.000  0.000  0.000  0.000  0.000  0.074
    7  0.045  0.022  0.000  0.007  0.000  0.000  0.000  0.000  0.000  0.075
    8  0.045  0.022  0.000  0.007  0.000  0.000  0.000  0.000  0.000  0.075
tot    0.271  0.245  0.000  0.241  0.000  0.000  0.000  0.000  0.000  0.757
 
band    12 # energy   -6.23197632 # occ.  2.00000000
 
ion      s     py     pz     px    dxy    dyz    dz2    dxz  x2-y2    tot
    1  0.018  0.060  0.000  0.061  0.000  0.000  0.000  0.000  0.000  0.139
    2  0.018  0.061  0.000  0.062  0.000  0.000  0.000  0.000  0.000  0.141
    3  0.004  0.064  0.000  0.001  0.000  0.000  0.000  0.000  0.000  0.068
    4  0.004  0.064  0.000  0.001  0.000  0.000  0.000  0.000  0.000  0.069
    5  0.001  0.055  0.000  0.039  0.000  0.000  0.000  0.000  0.000  0.095
    6  0.001  0.055  0.000  0.040  0.000  0.000  0.000  0.000  0.000  0.095
    7  0.004  0.064  0.000  0.001  0.000  0.000  0.000  0.000  0.000  0.069
    8  0.004  0.064  0.000  0.001  0.000  0.000  0.000  0.000  0.000  0.069
tot    0.052  0.486  0.000  0.207  0.000  0.000  0.000  0.000  0.000  0.745
 
band    13 # energy   -6.22710222 # occ.  2.00000000
 
ion      s     py     pz     px    dxy    dyz    dz2    dxz  x2-y2    tot
    1  0.018  0.061  0.000  0.062  0.000  0.000  0.000  0.000  0.000  0.141
    2  0.018  0.060  0.000  0.061  0.000  0.000  0.000  0.000  0.000  0.139
    3  0.002  0.021  0.000  0.064  0.000  0.000  0.000  0.000  0.000  0.086
    4  0.002  0.020  0.000  0.064  0.000  0.000  0.000  0.000  0.000  0.086
    5  0.005  0.000  0.000  0.056  0.000  0.000  0.000  0.000  0.000  0.061
    6  0.005  0.000  0.000  0.055  0.000  0.000  0.000  0.000  0.000  0.060
    7  0.002  0.021  0.000  0.064  0.000  0.000  0.000  0.000  0.000  0.086
    8  0.002  0.020  0.000  0.064  0.000  0.000  0.000  0.000  0.000  0.086
tot    0.052  0.205  0.000  0.488  0.000  0.000  0.000  0.000  0.000  0.745
 
band    14 # energy   -6.15704452 # occ.  2.00000000
 
ion      s     py     pz     px    dxy    dyz    dz2    dxz  x2-y2    tot
    1  0.000  0.000  0.048  0.000  0.000  0.000  0.000  0.000  0.000  0.048
    2  0.000  0.000  0.048  0.000  0.000  0.000  0.000  0.000  0.000  0.048
    3  0.000  0.000  0.083  0.000  0.000  0.000  0.000  0.000  0.000  0.083
    4  0.000  0.000  0.082  0.000  0.000  0.000  0.000  0.000  0.000  0.082
    5  0.000  0.000  0.004  0.000  0.000  0.000  0.000  0.000  0.000  0.004
    6  0.000  0.000  0.004  0.000  0.000  0.000  0.000  0.000  0.000  0.004
    7  0.000  0.000  0.082  0.000  0.000  0.000  0.000  0.000  0.000  0.082
    8  0.000  0.000  0.083  0.000  0.000  0.000  0.000  0.000  0.000  0.083
tot    0.000  0.000  0.433  0.000  0.000  0.000  0.000  0.000  0.000  0.433
 
band    15 # energy   -6.15337401 # occ.  2.00000000
 
ion      s     py     pz     px    dxy    dyz    dz2    dxz  x2-y2    tot
    1  0.000  0.000  0.048  0.000  0.000  0.000  0.000  0.000  0.000  0.048
    2  0.000  0.000  0.048  0.000  0.000  0.000  0.000  0.000  0.000  0.048
    3  0.000  0.000  0.030  0.000  0.000  0.000  0.000  0.000  0.000  0.030
    4  0.000  0.000  0.030  0.000  0.000  0.000  0.000  0.000  0.000  0.030
    5  0.000  0.000  0.109  0.000  0.000  0.000  0.000  0.000  0.000  0.109
    6  0.000  0.000  0.108  0.000  0.000  0.000  0.000  0.000  0.000  0.108
    7  0.000  0.000  0.031  0.000  0.000  0.000  0.000  0.000  0.000  0.031
    8  0.000  0.000  0.030  0.000  0.000  0.000  0.000  0.000  0.000  0.030
tot    0.000  0.000  0.433  0.000  0.000  0.000  0.000  0.000  0.000  0.433
 
band    16 # energy   -1.37542971 # occ.  0.00000000
 
ion      s     py     pz     px    dxy    dyz    dz2    dxz  x2-y2    tot
    1  0.000  0.000  0.066  0.000  0.000  0.000  0.000  0.000  0.000  0.066
    2  0.000  0.000  0.066  0.000  0.000  0.000  0.000  0.000  0.000  0.066
    3  0.000  0.000  0.072  0.000  0.000  0.000  0.000  0.000  0.000  0.072
    4  0.000  0.000  0.072  0.000  0.000  0.000  0.000  0.000  0.000  0.072
    5  0.000  0.000  0.038  0.000  0.000  0.000  0.000  0.000  0.000  0.038
    6  0.000  0.000  0.038  0.000  0.000  0.000  0.000  0.000  0.000  0.038
    7  0.000  0.000  0.072  0.000  0.000  0.000  0.000  0.000  0.000  0.072
    8  0.000  0.000  0.072  0.000  0.000  0.000  0.000  0.000  0.000  0.072
tot    0.000  0.000  0.496  0.000  0.000  0.000  0.000  0.000  0.000  0.496
 
band    17 # energy   -1.36768299 # occ.  0.00000000
 
ion      s     py     pz     px    dxy    dyz    dz2    dxz  x2-y2    tot
    1  0.000  0.000  0.066  0.000  0.000  0.000  0.000  0.000  0.000  0.066
    2  0.000  0.000  0.066  0.000  0.000  0.000  0.000  0.000  0.000  0.066
    3  0.000  0.000  0.049  0.000  0.000  0.000  0.000  0.000  0.000  0.049
    4  0.000  0.000  0.050  0.000  0.000  0.000  0.000  0.000  0.000  0.050
    5  0.000  0.000  0.083  0.000  0.000  0.000  0.000  0.000  0.000  0.083
    6  0.000  0.000  0.083  0.000  0.000  0.000  0.000  0.000  0.000  0.083
    7  0.000  0.000  0.050  0.000  0.000  0.000  0.000  0.000  0.000  0.050
    8  0.000  0.000  0.049  0.000  0.000  0.000  0.000  0.000  0.000  0.049
tot    0.000  0.000  0.496  0.000  0.000  0.000  0.000  0.000  0.000  0.496
 
band    18 # energy    3.27262263 # occ.  0.00000000
 
ion      s     py     pz     px    dxy    dyz    dz2    dxz  x2-y2    tot
    1  0.000  0.001  0.000  0.001  0.000  0.000  0.000  0.000  0.000  0.001
    2  0.000  0.001  0.000  0.001  0.000  0.000  0.000  0.000  0.000  0.001
    3  0.003  0.000  0.000  0.000  0.000  0.000  0.000  0.000  0.000  0.003
    4  0.003  0.000  0.000  0.000  0.000  0.000  0.000  0.000  0.000  0.003
    5  0.003  0.000  0.000  0.000  0.000  0.000  0.000  0.000  0.000  0.003
    6  0.003  0.000  0.000  0.000  0.000  0.000  0.000  0.000  0.000  0.003
    7  0.003  0.000  0.000  0.000  0.000  0.000  0.000  0.000  0.000  0.003
    8  0.003  0.000  0.000  0.000  0.000  0.000  0.000  0.000  0.000  0.003
tot    0.017  0.002  0.000  0.002  0.000  0.000  0.000  0.000  0.000  0.021
 
band    19 # energy    3.29811522 # occ.  0.00000000
 
ion      s     py     pz     px    dxy    dyz    dz2    dxz  x2-y2    tot
    1  0.001  0.000  0.000  0.000  0.000  0.000  0.000  0.000  0.000  0.001
    2  0.001  0.000  0.000  0.000  0.000  0.000  0.000  0.000  0.000  0.001
    3  0.003  0.002  0.000  0.000  0.000  0.000  0.000  0.000  0.000  0.005
    4  0.003  0.002  0.000  0.000  0.000  0.000  0.000  0.000  0.000  0.005
    5  0.000  0.001  0.000  0.001  0.000  0.000  0.000  0.000  0.000  0.003
    6  0.000  0.001  0.000  0.001  0.000  0.000  0.000  0.000  0.000  0.003
    7  0.003  0.002  0.000  0.000  0.000  0.000  0.000  0.000  0.000  0.005
    8  0.003  0.002  0.000  0.000  0.000  0.000  0.000  0.000  0.000  0.005
tot    0.014  0.009  0.000  0.003  0.000  0.000  0.000  0.000  0.000  0.027
 
band    20 # energy    3.30253095 # occ.  0.00000000
 
ion      s     py     pz     px    dxy    dyz    dz2    dxz  x2-y2    tot
    1  0.001  0.000  0.000  0.000  0.000  0.000  0.000  0.000  0.000  0.001
    2  0.001  0.000  0.000  0.000  0.000  0.000  0.000  0.000  0.000  0.001
    3  0.001  0.001  0.000  0.001  0.000  0.000  0.000  0.000  0.000  0.003
    4  0.001  0.001  0.000  0.001  0.000  0.000  0.000  0.000  0.000  0.003
    5  0.003  0.000  0.000  0.002  0.000  0.000  0.000  0.000  0.000  0.005
    6  0.003  0.000  0.000  0.002  0.000  0.000  0.000  0.000  0.000  0.005
    7  0.001  0.001  0.000  0.001  0.000  0.000  0.000  0.000  0.000  0.003
    8  0.001  0.001  0.000  0.001  0.000  0.000  0.000  0.000  0.000  0.003
tot    0.014  0.003  0.000  0.010  0.000  0.000  0.000  0.000  0.000  0.027
 
band    21 # energy    3.90962193 # occ.  0.00000000
 
ion      s     py     pz     px    dxy    dyz    dz2    dxz  x2-y2    tot
    1  0.000  0.000  0.013  0.000  0.000  0.000  0.000  0.000  0.000  0.013
    2  0.000  0.000  0.013  0.000  0.000  0.000  0.000  0.000  0.000  0.013
    3  0.000  0.000  0.023  0.000  0.000  0.000  0.000  0.000  0.000  0.023
    4  0.000  0.000  0.023  0.000  0.000  0.000  0.000  0.000  0.000  0.023
    5  0.000  0.000  0.042  0.000  0.000  0.000  0.000  0.000  0.000  0.042
    6  0.000  0.000  0.042  0.000  0.000  0.000  0.000  0.000  0.000  0.042
    7  0.000  0.000  0.023  0.000  0.000  0.000  0.000  0.000  0.000  0.023
    8  0.000  0.000  0.023  0.000  0.000  0.000  0.000  0.000  0.000  0.023
tot    0.000  0.000  0.201  0.000  0.000  0.000  0.000  0.000  0.000  0.201
 
band    22 # energy    3.91577347 # occ.  0.00000000
 
ion      s     py     pz     px    dxy    dyz    dz2    dxz  x2-y2    tot
    1  0.000  0.000  0.013  0.000  0.000  0.000  0.000  0.000  0.000  0.013
    2  0.000  0.000  0.013  0.000  0.000  0.000  0.000  0.000  0.000  0.013
    3  0.000  0.000  0.035  0.000  0.000  0.000  0.000  0.000  0.000  0.035
    4  0.000  0.000  0.035  0.000  0.000  0.000  0.000  0.000  0.000  0.035
    5  0.000  0.000  0.017  0.000  0.000  0.000  0.000  0.000  0.000  0.017
    6  0.000  0.000  0.017  0.000  0.000  0.000  0.000  0.000  0.000  0.017
    7  0.000  0.000  0.035  0.000  0.000  0.000  0.000  0.000  0.000  0.035
    8  0.000  0.000  0.035  0.000  0.000  0.000  0.000  0.000  0.000  0.035
tot    0.000  0.000  0.201  0.000  0.000  0.000  0.000  0.000  0.000  0.201
 
band    23 # energy    4.10068128 # occ.  0.00000000
 
ion      s     py     pz     px    dxy    dyz    dz2    dxz  x2-y2    tot
    1  0.000  0.000  0.000  0.000  0.000  0.000  0.000  0.000  0.000  0.000
    2  0.000  0.000  0.000  0.000  0.000  0.000  0.000  0.000  0.000  0.000
    3  0.000  0.000  0.005  0.000  0.000  0.000  0.000  0.000  0.000  0.005
    4  0.000  0.000  0.005  0.000  0.000  0.000  0.000  0.000  0.000  0.005
    5  0.000  0.000  0.005  0.000  0.000  0.000  0.000  0.000  0.000  0.005
    6  0.000  0.000  0.005  0.000  0.000  0.000  0.000  0.000  0.000  0.005
    7  0.000  0.000  0.005  0.000  0.000  0.000  0.000  0.000  0.000  0.005
    8  0.000  0.000  0.005  0.000  0.000  0.000  0.000  0.000  0.000  0.005
tot    0.000  0.000  0.030  0.000  0.000  0.000  0.000  0.000  0.000  0.030
 
band    24 # energy    4.38868744 # occ.  0.00000000
 
ion      s     py     pz     px    dxy    dyz    dz2    dxz  x2-y2    tot
    1  0.000  0.000  0.000  0.000  0.000  0.000  0.000  0.000  0.000  0.000
    2  0.000  0.000  0.002  0.000  0.000  0.000  0.000  0.000  0.000  0.002
    3  0.000  0.000  0.093  0.000  0.000  0.000  0.000  0.000  0.000  0.093
    4  0.000  0.000  0.089  0.000  0.000  0.000  0.000  0.000  0.000  0.089
    5  0.000  0.000  0.098  0.000  0.000  0.000  0.000  0.000  0.000  0.098
    6  0.000  0.000  0.096  0.000  0.000  0.000  0.000  0.000  0.000  0.096
    7  0.000  0.000  0.096  0.000  0.000  0.000  0.000  0.000  0.000  0.096
    8  0.000  0.000  0.105  0.000  0.000  0.000  0.000  0.000  0.000  0.105
tot    0.000  0.000  0.577  0.000  0.000  0.000  0.000  0.000  0.000  0.577
 

 k-point     2 :    0.32771429 0.32771429 0.00000000     weight = 0.00520833

band     1 # energy  -19.21535230 # occ.  2.00000000
 
ion      s     py     pz     px    dxy    dyz    dz2    dxz  x2-y2    tot
    1  0.000  0.005  0.000  0.005  0.000  0.000  0.000  0.000  0.000  0.010
    2  0.000  0.005  0.000  0.005  0.000  0.000  0.000  0.000  0.000  0.010
    3  0.096  0.008  0.000  0.003  0.000  0.000  0.000  0.000  0.000  0.107
    4  0.096  0.008  0.000  0.003  0.000  0.000  0.000  0.000  0.000  0.107
    5  0.097  0.000  0.000  0.011  0.000  0.000  0.000  0.000  0.000  0.108
    6  0.097  0.000  0.000  0.011  0.000  0.000  0.000  0.000  0.000  0.108
    7  0.096  0.008  0.000  0.003  0.000  0.000  0.000  0.000  0.000  0.107
    8  0.096  0.008  0.000  0.003  0.000  0.000  0.000  0.000  0.000  0.107
tot    0.577  0.043  0.000  0.041  0.000  0.000  0.000  0.000  0.000  0.661
 
band     2 # energy  -17.30462862 # occ.  2.00000000
 
ion      s     py     pz     px    dxy    dyz    dz2    dxz  x2-y2    tot
    1  0.040  0.004  0.000  0.005  0.000  0.000  0.000  0.000  0.000  0.050
    2  0.040  0.004  0.000  0.005  0.000  0.000  0.000  0.000  0.000  0.050
    3  0.122  0.001  0.000  0.006  0.000  0.000  0.000  0.000  0.000  0.129
    4  0.122  0.001  0.000  0.006  0.000  0.000  0.000  0.000  0.000  0.129
    5  0.003  0.021  0.000  0.001  0.000  0.000  0.000  0.000  0.000  0.025
    6  0.003  0.021  0.000  0.001  0.000  0.000  0.000  0.000  0.000  0.025
    7  0.122  0.001  0.000  0.006  0.000  0.000  0.000  0.000  0.000  0.129
    8  0.122  0.001  0.000  0.006  0.000  0.000  0.000  0.000  0.000  0.129
tot    0.573  0.057  0.000  0.036  0.000  0.000  0.000  0.000  0.000  0.665
 
band     3 # energy  -17.26243535 # occ.  2.00000000
 
ion      s     py     pz     px    dxy    dyz    dz2    dxz  x2-y2    tot
    1  0.039  0.005  0.000  0.005  0.000  0.000  0.000  0.000  0.000  0.049
    2  0.039  0.005  0.000  0.005  0.000  0.000  0.000  0.000  0.000  0.049
    3  0.043  0.005  0.000  0.012  0.000  0.000  0.000  0.000  0.000  0.060
    4  0.043  0.005  0.000  0.012  0.000  0.000  0.000  0.000  0.000  0.060
    5  0.161  0.002  0.000  0.000  0.000  0.000  0.000  0.000  0.000  0.164
    6  0.161  0.002  0.000  0.000  0.000  0.000  0.000  0.000  0.000  0.164
    7  0.043  0.005  0.000  0.012  0.000  0.000  0.000  0.000  0.000  0.060
    8  0.043  0.005  0.000  0.012  0.000  0.000  0.000  0.000  0.000  0.060
tot    0.571  0.036  0.000  0.059  0.000  0.000  0.000  0.000  0.000  0.666
 
band     4 # energy  -12.88491941 # occ.  2.00000000
 
ion      s     py     pz     px    dxy    dyz    dz2    dxz  x2-y2    tot
    1  0.054  0.004  0.000  0.005  0.000  0.000  0.000  0.000  0.000  0.063
    2  0.054  0.004  0.000  0.005  0.000  0.000  0.000  0.000  0.000  0.063
    3  0.077  0.005  0.000  0.020  0.000  0.000  0.000  0.000  0.000  0.102
    4  0.077  0.005  0.000  0.020  0.000  0.000  0.000  0.000  0.000  0.102
    5  0.017  0.061  0.000  0.011  0.000  0.000  0.000  0.000  0.000  0.088
    6  0.017  0.061  0.000  0.011  0.000  0.000  0.000  0.000  0.000  0.088
    7  0.077  0.005  0.000  0.020  0.000  0.000  0.000  0.000  0.000  0.102
    8  0.077  0.005  0.000  0.020  0.000  0.000  0.000  0.000  0.000  0.102
tot    0.449  0.153  0.000  0.112  0.000  0.000  0.000  0.000  0.000  0.714
 
band     5 # energy  -12.80707895 # occ.  2.00000000
 
ion      s     py     pz     px    dxy    dyz    dz2    dxz  x2-y2    tot
    1  0.051  0.005  0.000  0.006  0.000  0.000  0.000  0.000  0.000  0.062
    2  0.051  0.005  0.000  0.006  0.000  0.000  0.000  0.000  0.000  0.062
    3  0.037  0.021  0.000  0.036  0.000  0.000  0.000  0.000  0.000  0.094
    4  0.037  0.021  0.000  0.036  0.000  0.000  0.000  0.000  0.000  0.094
    5  0.097  0.004  0.000  0.006  0.000  0.000  0.000  0.000  0.000  0.108
    6  0.097  0.004  0.000  0.007  0.000  0.000  0.000  0.000  0.000  0.108
    7  0.037  0.021  0.000  0.036  0.000  0.000  0.000  0.000  0.000  0.094
    8  0.037  0.021  0.000  0.036  0.000  0.000  0.000  0.000  0.000  0.094
tot    0.444  0.103  0.000  0.168  0.000  0.000  0.000  0.000  0.000  0.715
 
band     6 # energy  -10.89095413 # occ.  2.00000000
 
ion      s     py     pz     px    dxy    dyz    dz2    dxz  x2-y2    tot
    1  0.000  0.032  0.000  0.030  0.000  0.000  0.000  0.000  0.000  0.062
    2  0.000  0.032  0.000  0.030  0.000  0.000  0.000  0.000  0.000  0.062
    3  0.001  0.037  0.000  0.048  0.000  0.000  0.000  0.000  0.000  0.085
    4  0.001  0.037  0.000  0.048  0.000  0.000  0.000  0.000  0.000  0.085
    5  0.000  0.059  0.000  0.027  0.000  0.000  0.000  0.000  0.000  0.086
    6  0.000  0.059  0.000  0.027  0.000  0.000  0.000  0.000  0.000  0.086
    7  0.001  0.037  0.000  0.048  0.000  0.000  0.000  0.000  0.000  0.085
    8  0.001  0.037  0.000  0.048  0.000  0.000  0.000  0.000  0.000  0.085
tot    0.002  0.330  0.000  0.305  0.000  0.000  0.000  0.000  0.000  0.637
 
band     7 # energy   -8.43514481 # occ.  2.00000000
 
ion      s     py     pz     px    dxy    dyz    dz2    dxz  x2-y2    tot
    1  0.084  0.008  0.000  0.004  0.000  0.000  0.000  0.000  0.000  0.096
    2  0.084  0.008  0.000  0.004  0.000  0.000  0.000  0.000  0.000  0.096
    3  0.009  0.056  0.000  0.053  0.000  0.000  0.000  0.000  0.000  0.118
    4  0.009  0.056  0.000  0.053  0.000  0.000  0.000  0.000  0.000  0.118
    5  0.013  0.012  0.000  0.015  0.000  0.000  0.000  0.000  0.000  0.040
    6  0.013  0.012  0.000  0.015  0.000  0.000  0.000  0.000  0.000  0.040
    7  0.009  0.056  0.000  0.053  0.000  0.000  0.000  0.000  0.000  0.118
    8  0.009  0.056  0.000  0.053  0.000  0.000  0.000  0.000  0.000  0.118
tot    0.229  0.267  0.000  0.247  0.000  0.000  0.000  0.000  0.000  0.743
 
band     8 # energy   -8.33234425 # occ.  2.00000000
 
ion      s     py     pz     px    dxy    dyz    dz2    dxz  x2-y2    tot
    1  0.085  0.004  0.000  0.008  0.000  0.000  0.000  0.000  0.000  0.097
    2  0.085  0.004  0.000  0.008  0.000  0.000  0.000  0.000  0.000  0.097
    3  0.013  0.044  0.000  0.003  0.000  0.000  0.000  0.000  0.000  0.060
    4  0.013  0.044  0.000  0.003  0.000  0.000  0.000  0.000  0.000  0.060
    5  0.003  0.056  0.000  0.097  0.000  0.000  0.000  0.000  0.000  0.156
    6  0.003  0.056  0.000  0.097  0.000  0.000  0.000  0.000  0.000  0.156
    7  0.013  0.044  0.000  0.003  0.000  0.000  0.000  0.000  0.000  0.060
    8  0.013  0.044  0.000  0.003  0.000  0.000  0.000  0.000  0.000  0.060
tot    0.229  0.294  0.000  0.223  0.000  0.000  0.000  0.000  0.000  0.746
 
band     9 # energy   -8.01484919 # occ.  2.00000000
 
ion      s     py     pz     px    dxy    dyz    dz2    dxz  x2-y2    tot
    1  0.001  0.019  0.000  0.020  0.000  0.000  0.000  0.000  0.000  0.040
    2  0.001  0.019  0.000  0.020  0.000  0.000  0.000  0.000  0.000  0.040
    3  0.004  0.038  0.000  0.068  0.000  0.000  0.000  0.000  0.000  0.110
    4  0.004  0.038  0.000  0.068  0.000  0.000  0.000  0.000  0.000  0.110
    5  0.006  0.051  0.000  0.036  0.000  0.000  0.000  0.000  0.000  0.093
    6  0.006  0.051  0.000  0.036  0.000  0.000  0.000  0.000  0.000  0.093
    7  0.004  0.038  0.000  0.068  0.000  0.000  0.000  0.000  0.000  0.110
    8  0.004  0.038  0.000  0.068  0.000  0.000  0.000  0.000  0.000  0.110
tot    0.031  0.292  0.000  0.383  0.000  0.000  0.000  0.000  0.000  0.706
 
band    10 # energy   -7.37858726 # occ.  2.00000000
 
ion      s     py     pz     px    dxy    dyz    dz2    dxz  x2-y2    tot
    1  0.000  0.000  0.000  0.000  0.000  0.000  0.000  0.000  0.000  0.000
    2  0.000  0.000  0.000  0.000  0.000  0.000  0.000  0.000  0.000  0.000
    3  0.000  0.000  0.072  0.000  0.000  0.000  0.000  0.000  0.000  0.072
    4  0.000  0.000  0.072  0.000  0.000  0.000  0.000  0.000  0.000  0.072
    5  0.000  0.000  0.074  0.000  0.000  0.000  0.000  0.000  0.000  0.074
    6  0.000  0.000  0.074  0.000  0.000  0.000  0.000  0.000  0.000  0.074
    7  0.000  0.000  0.072  0.000  0.000  0.000  0.000  0.000  0.000  0.072
    8  0.000  0.000  0.072  0.000  0.000  0.000  0.000  0.000  0.000  0.072
tot    0.000  0.000  0.438  0.000  0.000  0.000  0.000  0.000  0.000  0.438
 
band    11 # energy   -7.23876228 # occ.  2.00000000
 
ion      s     py     pz     px    dxy    dyz    dz2    dxz  x2-y2    tot
    1  0.000  0.087  0.000  0.068  0.000  0.000  0.000  0.000  0.000  0.155
    2  0.000  0.087  0.000  0.068  0.000  0.000  0.000  0.000  0.000  0.155
    3  0.044  0.026  0.000  0.008  0.000  0.000  0.000  0.000  0.000  0.078
    4  0.044  0.026  0.000  0.008  0.000  0.000  0.000  0.000  0.000  0.078
    5  0.047  0.000  0.000  0.021  0.000  0.000  0.000  0.000  0.000  0.068
    6  0.047  0.000  0.000  0.021  0.000  0.000  0.000  0.000  0.000  0.068
    7  0.044  0.026  0.000  0.008  0.000  0.000  0.000  0.000  0.000  0.078
    8  0.044  0.026  0.000  0.008  0.000  0.000  0.000  0.000  0.000  0.078
tot    0.270  0.277  0.000  0.210  0.000  0.000  0.000  0.000  0.000  0.757
 
band    12 # energy   -6.26877576 # occ.  2.00000000
 
ion      s     py     pz     px    dxy    dyz    dz2    dxz  x2-y2    tot
    1  0.018  0.053  0.000  0.069  0.000  0.000  0.000  0.000  0.000  0.140
    2  0.018  0.053  0.000  0.069  0.000  0.000  0.000  0.000  0.000  0.140
    3  0.004  0.062  0.000  0.001  0.000  0.000  0.000  0.000  0.000  0.067
    4  0.004  0.063  0.000  0.001  0.000  0.000  0.000  0.000  0.000  0.067
    5  0.000  0.053  0.000  0.044  0.000  0.000  0.000  0.000  0.000  0.097
    6  0.000  0.053  0.000  0.044  0.000  0.000  0.000  0.000  0.000  0.097
    7  0.004  0.062  0.000  0.001  0.000  0.000  0.000  0.000  0.000  0.067
    8  0.004  0.062  0.000  0.001  0.000  0.000  0.000  0.000  0.000  0.067
tot    0.053  0.461  0.000  0.230  0.000  0.000  0.000  0.000  0.000  0.744
 
band    13 # energy   -6.18657713 # occ.  2.00000000
 
ion      s     py     pz     px    dxy    dyz    dz2    dxz  x2-y2    tot
    1  0.018  0.059  0.000  0.063  0.000  0.000  0.000  0.000  0.000  0.140
    2  0.018  0.059  0.000  0.063  0.000  0.000  0.000  0.000  0.000  0.140
    3  0.001  0.019  0.000  0.065  0.000  0.000  0.000  0.000  0.000  0.085