 ----------------------------------------------------
    OOO  PPPP  EEEEE N   N M   M PPPP
   O   O P   P E     NN  N MM MM P   P
   O   O PPPP  EEEEE N N N M M M PPPP   -- VERSION
   O   O P     E     N  NN M   M P
    OOO  P     EEEEE N   N M   M P
 ----------------------------------------------------
 running   48 mpi-ranks, with    1 threads/rank
 distrk:  each k-point on   48 cores,    1 groups
 distr:  one band on    1 cores,   48 groups
 vasp.6.3.2 27Jun22 (build Dec 22 2022 13:13:19) complex                        
  
 POSCAR found type information on POSCAR B C 
 POSCAR found :  2 types and       8 ions
 Reading from existing POTCAR
 scaLAPACK will be used
 Reading from existing POTCAR
 LDA part: xc-table for Pade appr. of Perdew
 POSCAR found type information on POSCAR B C 
 POSCAR found :  2 types and       8 ions
 WARNING: stress and forces are not correct
 POSCAR, INCAR and KPOINTS ok, starting setup
 FFT: planning ... GRIDC
 FFT: planning ... GRID_SOFT
 FFT: planning ... GRID
 WAVECAR not read
 charge-density read from file: BS                                      
 entering main loop
       N       E                     dE             d eps       ncg     rms          rms(c)
DAV:   1     0.785215636184E+02    0.78522E+02   -0.11276E+04 18432   0.411E+02
DAV:   2    -0.624673309947E+02   -0.14099E+03   -0.13997E+03 27264   0.707E+01
DAV:   3    -0.669270231863E+02   -0.44597E+01   -0.44489E+01 26496   0.184E+01
DAV:   4    -0.669463115610E+02   -0.19288E-01   -0.19288E-01 28656   0.117E+00
DAV:   5    -0.669463170777E+02   -0.55167E-05   -0.55168E-05 26496   0.225E-02
DAV:   6    -0.669463170880E+02   -0.10284E-07   -0.99629E-08 27600   0.819E-04
   1 F= -.67624354E+02 E0= -.67624354E+02  d E =-.320684E-06
 writing wavefunctions
