  16  16   0  16
  0.2012733E+02  0.4979000E-09  0.4979000E-09  0.1500000E-08  0.5000000E-15
  1.000000000000000E-004
  CAR 
 SC                                      
      9.54938174    -21.14029650  301     -0.14515147      1.00000000
    -21.140  0.0000E+00  0.0000E+00
    -21.038  0.0000E+00  0.0000E+00
    -20.936  0.0000E+00  0.0000E+00
    -20.833  0.0000E+00  0.0000E+00
    -20.731  0.0000E+00  0.0000E+00
    -20.629  0.0000E+00  0.0000E+00
    -20.527  0.0000E+00  0.0000E+00
    -20.424  0.0000E+00  0.0000E+00
    -20.322  0.2691E-16  0.2753E-17
    -20.220  0.1672E-11  0.1710E-12
    -20.117  0.1296E-07  0.1326E-08
    -20.015  0.1443E-04  0.1477E-05
    -19.913  0.2560E-02  0.2633E-03
    -19.810  0.8104E-01  0.8554E-02
    -19.708  0.5325E+00  0.6302E-01
    -19.606  0.1103E+01  0.1759E+00
    -19.504  0.1215E+01  0.3002E+00
    -19.401  0.1284E+01  0.4315E+00
    -19.299  0.1288E+01  0.5632E+00
    -19.197  0.1055E+01  0.6712E+00
    -19.094  0.1572E+01  0.8320E+00
    -18.992  0.1130E+01  0.9477E+00
    -18.890  0.9700E+00  0.1047E+01
    -18.787  0.1594E+01  0.1210E+01
    -18.685  0.1496E+01  0.1363E+01
    -18.583  0.7598E+00  0.1441E+01
    -18.481  0.1145E+01  0.1558E+01
    -18.378  0.1738E+01  0.1736E+01
    -18.276  0.1475E+01  0.1887E+01
    -18.174  0.9649E+00  0.1985E+01
    -18.071  0.6603E+00  0.2053E+01
    -17.969  0.1710E+01  0.2228E+01
    -17.867  0.1856E+01  0.2418E+01
    -17.764  0.1088E+01  0.2529E+01
    -17.662  0.1096E+01  0.2641E+01
    -17.560  0.6742E+00  0.2710E+01
    -17.458  0.1387E+01  0.2852E+01
    -17.355  0.2156E+01  0.3072E+01
    -17.253  0.1492E+01  0.3225E+01
    -17.151  0.7489E+00  0.3302E+01
    -17.048  0.9402E+00  0.3398E+01
    -16.946  0.1071E+01  0.3508E+01
    -16.844  0.1505E+01  0.3661E+01
    -16.741  0.2047E+01  0.3871E+01
    -16.639  0.1515E+01  0.4026E+01
    -16.537  0.1150E+01  0.4143E+01
    -16.435  0.4800E+00  0.4193E+01
    -16.332  0.9309E+00  0.4288E+01
    -16.230  0.1841E+01  0.4476E+01
    -16.128  0.1882E+01  0.4669E+01
    -16.025  0.1775E+01  0.4850E+01
    -15.923  0.2168E+01  0.5072E+01
    -15.821  0.2673E+01  0.5346E+01
    -15.718  0.2349E+01  0.5586E+01
    -15.616  0.2152E+01  0.5806E+01
    -15.514  0.3872E+01  0.6202E+01
    -15.412  0.4210E+01  0.6633E+01
    -15.309  0.3153E+01  0.6955E+01
    -15.207  0.3753E+01  0.7339E+01
    -15.105  0.3332E+01  0.7680E+01
    -15.002  0.3376E+01  0.8025E+01
    -14.900  0.1687E+01  0.8198E+01
    -14.798  0.2245E+01  0.8428E+01
    -14.695  0.3261E+01  0.8761E+01
    -14.593  0.2672E+01  0.9035E+01
    -14.491  0.2586E+01  0.9299E+01
    -14.389  0.2409E+01  0.9545E+01
    -14.286  0.2517E+01  0.9803E+01
    -14.184  0.1809E+01  0.9988E+01
    -14.082  0.2977E+01  0.1029E+02
    -13.979  0.3795E+01  0.1068E+02
    -13.877  0.1785E+01  0.1086E+02
    -13.775  0.7566E+00  0.1094E+02
    -13.672  0.1322E+01  0.1108E+02
    -13.570  0.1226E+01  0.1120E+02
    -13.468  0.1404E+01  0.1135E+02
    -13.366  0.1920E+01  0.1154E+02
    -13.263  0.2524E+01  0.1180E+02
    -13.161  0.2078E+01  0.1201E+02
    -13.059  0.1619E+01  0.1218E+02
    -12.956  0.1626E+01  0.1234E+02
    -12.854  0.1615E+01  0.1251E+02
    -12.752  0.2561E+01  0.1277E+02
    -12.649  0.3548E+01  0.1313E+02
    -12.547  0.2809E+01  0.1342E+02
    -12.445  0.3046E+01  0.1373E+02
    -12.343  0.3618E+01  0.1410E+02
    -12.240  0.3509E+01  0.1446E+02
    -12.138  0.4690E+01  0.1494E+02
    -12.036  0.3644E+01  0.1531E+02
    -11.933  0.3427E+01  0.1567E+02
    -11.831  0.4260E+01  0.1610E+02
    -11.729  0.3518E+01  0.1646E+02
    -11.626  0.1825E+01  0.1665E+02
    -11.524  0.1657E+01  0.1682E+02
    -11.422  0.1189E+01  0.1694E+02
    -11.320  0.9234E+00  0.1703E+02
    -11.217  0.1335E+01  0.1717E+02
    -11.115  0.1793E+01  0.1735E+02
    -11.013  0.1658E+01  0.1752E+02
    -10.910  0.1028E+01  0.1763E+02
    -10.808  0.1360E+01  0.1777E+02
    -10.706  0.3735E+01  0.1815E+02
    -10.604  0.3637E+01  0.1852E+02
    -10.501  0.3803E+01  0.1891E+02
    -10.399  0.4155E+01  0.1934E+02
    -10.297  0.2258E+01  0.1957E+02
    -10.194  0.2588E+01  0.1983E+02
    -10.092  0.2891E+01  0.2013E+02
     -9.990  0.2870E+01  0.2042E+02
     -9.887  0.2506E+01  0.2068E+02
     -9.785  0.1110E+01  0.2079E+02
     -9.683  0.1181E+01  0.2091E+02
     -9.581  0.4882E+01  0.2141E+02
     -9.478  0.6989E+01  0.2213E+02
     -9.376  0.3594E+01  0.2249E+02
     -9.274  0.1729E+01  0.2267E+02
     -9.171  0.3438E+01  0.2302E+02
     -9.069  0.5010E+01  0.2353E+02
     -8.967  0.3594E+01  0.2390E+02
     -8.864  0.2578E+01  0.2417E+02
     -8.762  0.3942E+01  0.2457E+02
     -8.660  0.5308E+01  0.2511E+02
     -8.558  0.3880E+01  0.2551E+02
     -8.455  0.2264E+01  0.2574E+02
     -8.353  0.4246E+01  0.2618E+02
     -8.251  0.3935E+01  0.2658E+02
     -8.148  0.1323E+01  0.2671E+02
     -8.046  0.2649E+01  0.2698E+02
     -7.944  0.6386E+01  0.2764E+02
     -7.841  0.6108E+01  0.2826E+02
     -7.739  0.5020E+01  0.2878E+02
     -7.637  0.4180E+01  0.2920E+02
     -7.535  0.2906E+01  0.2950E+02
     -7.432  0.2607E+01  0.2977E+02
     -7.330  0.4892E+01  0.3027E+02
     -7.228  0.6212E+01  0.3090E+02
     -7.125  0.4577E+01  0.3137E+02
     -7.023  0.3932E+01  0.3177E+02
     -6.921  0.5566E+01  0.3234E+02
     -6.818  0.5504E+01  0.3291E+02
     -6.716  0.5287E+01  0.3345E+02
     -6.614  0.7688E+01  0.3423E+02
     -6.512  0.7842E+01  0.3504E+02
     -6.409  0.7714E+01  0.3583E+02
     -6.307  0.6232E+01  0.3646E+02
     -6.205  0.4679E+01  0.3694E+02
     -6.102  0.3352E+01  0.3728E+02
     -6.000  0.3858E+01  0.3768E+02
     -5.898  0.4470E+01  0.3814E+02
     -5.795  0.3831E+01  0.3853E+02
     -5.693  0.4041E+01  0.3894E+02
     -5.591  0.4777E+01  0.3943E+02
     -5.489  0.2836E+01  0.3972E+02
     -5.386  0.2887E+01  0.4002E+02
     -5.284  0.3781E+01  0.4040E+02
     -5.182  0.4654E+01  0.4088E+02
     -5.079  0.5429E+01  0.4143E+02
     -4.977  0.2883E+01  0.4173E+02
     -4.875  0.2103E+01  0.4194E+02
     -4.772  0.3158E+01  0.4227E+02
     -4.670  0.4849E+01  0.4276E+02
     -4.568  0.4965E+01  0.4327E+02
     -4.466  0.3748E+01  0.4365E+02
     -4.363  0.3548E+01  0.4402E+02
     -4.261  0.3996E+01  0.4443E+02
     -4.159  0.6560E+01  0.4510E+02
     -4.056  0.6809E+01  0.4579E+02
     -3.954  0.4588E+01  0.4626E+02
     -3.852  0.5260E+01  0.4680E+02
     -3.749  0.7758E+01  0.4759E+02
     -3.647  0.7572E+01  0.4837E+02
     -3.545  0.6196E+01  0.4900E+02
     -3.443  0.3130E+01  0.4932E+02
     -3.340  0.2073E+01  0.4954E+02
     -3.238  0.1981E+01  0.4974E+02
     -3.136  0.4097E+01  0.5016E+02
     -3.033  0.4663E+01  0.5063E+02
     -2.931  0.3249E+01  0.5097E+02
     -2.829  0.2729E+01  0.5125E+02
     -2.726  0.2873E+01  0.5154E+02
     -2.624  0.2590E+01  0.5180E+02
     -2.522  0.2622E+01  0.5207E+02
     -2.420  0.4345E+01  0.5252E+02
     -2.317  0.3947E+01  0.5292E+02
     -2.215  0.2041E+01  0.5313E+02
     -2.113  0.2043E+01  0.5334E+02
     -2.010  0.2329E+01  0.5358E+02
     -1.908  0.9983E+00  0.5368E+02
     -1.806  0.1342E+01  0.5382E+02
     -1.704  0.2230E+01  0.5404E+02
     -1.601  0.3459E+01  0.5440E+02
     -1.499  0.2446E+01  0.5465E+02
     -1.397  0.1214E+01  0.5477E+02
     -1.294  0.1083E+01  0.5488E+02
     -1.192  0.1055E+01  0.5499E+02
     -1.090  0.1610E+01  0.5516E+02
     -0.987  0.2002E+01  0.5536E+02
     -0.885  0.1635E+01  0.5553E+02
     -0.783  0.1042E+01  0.5564E+02
     -0.681  0.3780E+00  0.5567E+02
     -0.578  0.5151E+00  0.5573E+02
     -0.476  0.8696E+00  0.5582E+02
     -0.374  0.4649E+00  0.5586E+02
     -0.271  0.2038E+00  0.5588E+02
     -0.169  0.7846E+00  0.5596E+02
     -0.067  0.1805E+01  0.5615E+02
      0.036  0.1555E+01  0.5631E+02
      0.138  0.1006E+01  0.5641E+02
      0.240  0.1290E+01  0.5654E+02
      0.342  0.1591E+01  0.5671E+02
      0.445  0.2493E+01  0.5696E+02
      0.547  0.3481E+01  0.5732E+02
      0.649  0.3529E+01  0.5768E+02
      0.752  0.2644E+01  0.5795E+02
      0.854  0.9144E+00  0.5804E+02
      0.956  0.8940E+00  0.5813E+02
      1.059  0.1025E+01  0.5824E+02
      1.161  0.8004E+00  0.5832E+02
      1.263  0.2961E+01  0.5862E+02
      1.365  0.5920E+01  0.5923E+02
      1.468  0.6367E+01  0.5988E+02
      1.570  0.2995E+01  0.6019E+02
      1.672  0.1147E+01  0.6030E+02
      1.775  0.1574E+01  0.6046E+02
      1.877  0.2544E+01  0.6072E+02
      1.979  0.2451E+01  0.6098E+02
      2.082  0.2950E+01  0.6128E+02
      2.184  0.3193E+01  0.6160E+02
      2.286  0.3733E+01  0.6199E+02
      2.388  0.3806E+01  0.6238E+02
      2.491  0.1909E+01  0.6257E+02
      2.593  0.9166E+00  0.6266E+02
      2.695  0.1463E+01  0.6281E+02
      2.798  0.2620E+01  0.6308E+02
      2.900  0.3376E+01  0.6343E+02
      3.002  0.4562E+01  0.6389E+02
      3.105  0.5144E+01  0.6442E+02
      3.207  0.4691E+01  0.6490E+02
      3.309  0.4202E+01  0.6533E+02
      3.411  0.3932E+01  0.6573E+02
      3.514  0.3034E+01  0.6604E+02
      3.616  0.2887E+01  0.6634E+02
      3.718  0.5274E+01  0.6688E+02
      3.821  0.7081E+01  0.6760E+02
      3.923  0.5443E+01  0.6816E+02
      4.025  0.4901E+01  0.6866E+02
      4.128  0.7349E+01  0.6941E+02
      4.230  0.5969E+01  0.7002E+02
      4.332  0.4717E+01  0.7050E+02
      4.434  0.4982E+01  0.7101E+02
      4.537  0.5199E+01  0.7155E+02
      4.639  0.5039E+01  0.7206E+02
      4.741  0.5565E+01  0.7263E+02
      4.844  0.6664E+01  0.7331E+02
      4.946  0.7481E+01  0.7408E+02
      5.048  0.5227E+01  0.7461E+02
      5.151  0.4980E+01  0.7512E+02
      5.253  0.8106E+01  0.7595E+02
      5.355  0.7580E+01  0.7673E+02
      5.457  0.6493E+01  0.7739E+02
      5.560  0.6460E+01  0.7805E+02
      5.662  0.6553E+01  0.7872E+02
      5.764  0.6161E+01  0.7935E+02
      5.867  0.5171E+01  0.7988E+02
      5.969  0.5834E+01  0.8048E+02
      6.071  0.6777E+01  0.8117E+02
      6.174  0.7302E+01  0.8192E+02
      6.276  0.5307E+01  0.8246E+02
      6.378  0.6044E+01  0.8308E+02
      6.480  0.7086E+01  0.8380E+02
      6.583  0.5533E+01  0.8437E+02
      6.685  0.5157E+01  0.8490E+02
      6.787  0.6489E+01  0.8556E+02
      6.890  0.9161E+01  0.8650E+02
      6.992  0.1009E+02  0.8753E+02
      7.094  0.1058E+02  0.8861E+02
      7.197  0.8294E+01  0.8946E+02
      7.299  0.5718E+01  0.9005E+02
      7.401  0.5268E+01  0.9059E+02
      7.503  0.7404E+01  0.9134E+02
      7.606  0.1074E+02  0.9244E+02
      7.708  0.9590E+01  0.9342E+02
      7.810  0.9884E+01  0.9443E+02
      7.913  0.8571E+01  0.9531E+02
      8.015  0.4047E+01  0.9573E+02
      8.117  0.1852E+01  0.9592E+02
      8.219  0.7437E+00  0.9599E+02
      8.322  0.8459E-01  0.9600E+02
      8.424  0.2243E-02  0.9600E+02
      8.526  0.1265E-04  0.9600E+02
      8.629  0.1202E-07  0.9600E+02
      8.731  0.1614E-11  0.9600E+02
      8.833  0.3588E-16  0.9600E+02
      8.936  0.0000E+00  0.9600E+02
      9.038  0.0000E+00  0.9600E+02
      9.140  0.0000E+00  0.9600E+02
      9.242  0.0000E+00  0.9600E+02
      9.345  0.0000E+00  0.9600E+02
      9.447  0.0000E+00  0.9600E+02
      9.549  0.0000E+00  0.9600E+02
