       N       E                     dE             d eps       ncg     rms          rms(c)
DAV:   1     0.203089047187E+03    0.20309E+03   -0.25739E+04 14208   0.860E+02
DAV:   2    -0.116490892573E+03   -0.31958E+03   -0.31797E+03 20256   0.163E+02
DAV:   3    -0.129410289939E+03   -0.12919E+02   -0.12908E+02 26784   0.430E+01
DAV:   4    -0.129431781130E+03   -0.21491E-01   -0.21489E-01 19680   0.174E+00
DAV:   5    -0.129431848654E+03   -0.67524E-04   -0.67523E-04 25920   0.946E-02    0.244E+01
DAV:   6    -0.920430090199E+02    0.37389E+02   -0.72003E+01 25776   0.255E+01    0.139E+01
DAV:   7    -0.100479057230E+03   -0.84360E+01   -0.99197E+00 22176   0.101E+01    0.809E+00
DAV:   8    -0.110490452119E+03   -0.10011E+02   -0.88440E+00 23568   0.897E+00    0.434E+00
DAV:   9    -0.117170753032E+03   -0.66803E+01   -0.38324E+00 19872   0.605E+00    0.277E+00
DAV:  10    -0.123488922740E+03   -0.63182E+01   -0.82479E+00 23760   0.701E+00    0.161E+00
DAV:  11    -0.125304236041E+03   -0.18153E+01   -0.30848E+00 24384   0.389E+00    0.101E+00
DAV:  12    -0.125425833354E+03   -0.12160E+00   -0.21516E-01 20208   0.127E+00    0.491E-01
DAV:  13    -0.125452410965E+03   -0.26578E-01   -0.21394E-02 17376   0.520E-01    0.199E-01
DAV:  14    -0.125476411679E+03   -0.24001E-01   -0.59686E-03 21360   0.266E-01    0.865E-02
DAV:  15    -0.125484504899E+03   -0.80932E-02   -0.32614E-03 18720   0.153E-01    0.461E-02
DAV:  16    -0.125486580607E+03   -0.20757E-02   -0.66225E-04 17568   0.799E-02    0.230E-02
DAV:  17    -0.125487875299E+03   -0.12947E-02   -0.17462E-04 15024   0.501E-02    0.180E-02
DAV:  18    -0.125488560892E+03   -0.68559E-03   -0.86463E-05 15792   0.366E-02    0.128E-02
DAV:  19    -0.125489030719E+03   -0.46983E-03   -0.43133E-05 19056   0.241E-02    0.766E-03
DAV:  20    -0.125489080936E+03   -0.50216E-04   -0.22632E-05 21936   0.177E-02    0.473E-03
DAV:  21    -0.125489107130E+03   -0.26194E-04   -0.65741E-06 20016   0.944E-03    0.232E-03
DAV:  22    -0.125489127148E+03   -0.20018E-04   -0.21458E-06 21984   0.548E-03    0.146E-03
DAV:  23    -0.125489144388E+03   -0.17239E-04   -0.18637E-06 20400   0.411E-03    0.772E-04
DAV:  24    -0.125489148085E+03   -0.36975E-05   -0.39642E-07 21888   0.227E-03    0.394E-04
DAV:  25    -0.125489149102E+03   -0.10167E-05   -0.12298E-07 22848   0.116E-03    0.195E-04
DAV:  26    -0.125489149640E+03   -0.53848E-06   -0.31651E-08 20688   0.597E-04
   1 F= -.12707710E+03 E0= -.12707631E+03  d E =-.127077E+03  mag=    -0.0000
       N       E                     dE             d eps       ncg     rms          rms(c)
DAV:   1    -0.125499784329E+03   -0.10635E-01   -0.29897E+00 14208   0.529E+00    0.471E-01
DAV:   2    -0.125491950273E+03    0.78341E-02   -0.60201E-02 26016   0.676E-01    0.207E-01
DAV:   3    -0.125491091651E+03    0.85862E-03   -0.48496E-03 19968   0.189E-01    0.818E-02
DAV:   4    -0.125491058936E+03    0.32715E-04   -0.57391E-04 27216   0.661E-02    0.211E-02
DAV:   5    -0.125491062290E+03   -0.33534E-05   -0.15091E-05 24288   0.120E-02    0.832E-03
DAV:   6    -0.125491062485E+03   -0.19512E-06   -0.18716E-06 22320   0.410E-03
   2 F= -.12707832E+03 E0= -.12707754E+03  d E =-.122708E-02  mag=    -0.0000
       N       E                     dE             d eps       ncg     rms          rms(c)
DAV:   1    -0.125498942969E+03   -0.78807E-02   -0.67956E-01 14256   0.252E+00    0.225E-01
DAV:   2    -0.125497126890E+03    0.18161E-02   -0.13674E-02 25248   0.321E-01    0.986E-02
DAV:   3    -0.125496937668E+03    0.18922E-03   -0.10955E-03 21744   0.907E-02    0.395E-02
DAV:   4    -0.125496930901E+03    0.67670E-05   -0.12874E-04 23712   0.312E-02    0.973E-03
DAV:   5    -0.125496931582E+03   -0.68161E-06   -0.40977E-06 20208   0.614E-03
   3 F= -.12708451E+03 E0= -.12708373E+03  d E =-.741923E-02  mag=    -0.0000
       N       E                     dE             d eps       ncg     rms          rms(c)
DAV:   1    -0.125504668125E+03   -0.77372E-02   -0.38639E-01 14208   0.213E+00    0.128E-01
DAV:   2    -0.125504751271E+03   -0.83145E-04   -0.23174E-03 27936   0.186E-01    0.756E-02
DAV:   3    -0.125504747006E+03    0.42650E-05   -0.22800E-04 21696   0.516E-02    0.149E-02
DAV:   4    -0.125504748594E+03   -0.15881E-05   -0.22617E-05 26640   0.175E-02    0.581E-03
DAV:   5    -0.125504748902E+03   -0.30816E-06   -0.98410E-07 21792   0.412E-03
   4 F= -.12709205E+03 E0= -.12709126E+03  d E =-.753327E-02  mag=    -0.0000
       N       E                     dE             d eps       ncg     rms          rms(c)
DAV:   1    -0.125516331233E+03   -0.11583E-01   -0.35021E+00 14208   0.637E+00    0.384E-01
DAV:   2    -0.125517258755E+03   -0.92752E-03   -0.21792E-02 27072   0.567E-01    0.226E-01
DAV:   3    -0.125517206184E+03    0.52572E-04   -0.21063E-03 21168   0.156E-01    0.451E-02
DAV:   4    -0.125517223055E+03   -0.16871E-04   -0.20640E-04 28032   0.525E-02    0.175E-02
DAV:   5    -0.125517226062E+03   -0.30069E-05   -0.85623E-06 21024   0.122E-02    0.788E-03
DAV:   6    -0.125517226263E+03   -0.20126E-06   -0.62667E-06 25104   0.932E-03
   5 F= -.12710368E+03 E0= -.12710290E+03  d E =-.191686E-01  mag=     0.0000
       N       E                     dE             d eps       ncg     rms          rms(c)
DAV:   1    -0.125520877581E+03   -0.36515E-02   -0.12409E-01 14256   0.138E+00    0.830E-02
DAV:   2    -0.125520866376E+03    0.11205E-04   -0.11012E-03 26304   0.147E-01    0.462E-02
DAV:   3    -0.125520839133E+03    0.27243E-04   -0.12982E-04 20688   0.432E-02    0.133E-02
DAV:   4    -0.125520840190E+03   -0.10573E-05   -0.18678E-05 26016   0.164E-02    0.542E-03
DAV:   5    -0.125520840655E+03   -0.46461E-06   -0.89097E-07 21888   0.388E-03
   6 F= -.12710714E+03 E0= -.12710636E+03  d E =-.346150E-02  mag=     0.0000
       N       E                     dE             d eps       ncg     rms          rms(c)
DAV:   1    -0.125524038515E+03   -0.31983E-02   -0.47265E-01 14208   0.270E+00    0.161E-01
DAV:   2    -0.125523996708E+03    0.41808E-04   -0.41564E-03 26112   0.285E-01    0.899E-02
DAV:   3    -0.125523894114E+03    0.10259E-03   -0.49588E-04 21600   0.843E-02    0.256E-02
DAV:   4    -0.125523898324E+03   -0.42094E-05   -0.68087E-05 24864   0.310E-02    0.104E-02
DAV:   5    -0.125523899046E+03   -0.72235E-06   -0.28015E-06 21696   0.687E-03
   7 F= -.12710989E+03 E0= -.12710911E+03  d E =-.620643E-02  mag=     0.0000
       N       E                     dE             d eps       ncg     rms          rms(c)
DAV:   1    -0.125526314448E+03   -0.24161E-02   -0.10713E-01 14208   0.107E+00    0.615E-02
DAV:   2    -0.125526340317E+03   -0.25869E-04   -0.57802E-04 24480   0.859E-02    0.368E-02
DAV:   3    -0.125526338470E+03    0.18474E-05   -0.65551E-05 19776   0.239E-02    0.604E-03
DAV:   4    -0.125526338519E+03   -0.49498E-07   -0.40114E-06 24960   0.779E-03
   8 F= -.12711211E+03 E0= -.12711133E+03  d E =-.221958E-02  mag=     0.0000
       N       E                     dE             d eps       ncg     rms          rms(c)
DAV:   1    -0.125531544968E+03   -0.52065E-02   -0.96558E-01 14208   0.320E+00    0.183E-01
DAV:   2    -0.125531781052E+03   -0.23608E-03   -0.49572E-03 27744   0.252E-01    0.110E-01
DAV:   3    -0.125531761071E+03    0.19981E-04   -0.57953E-04 20784   0.697E-02    0.166E-02
DAV:   4    -0.125531760972E+03    0.99571E-07   -0.32148E-05 24000   0.223E-02    0.846E-03
DAV:   5    -0.125531758734E+03    0.22379E-05   -0.48980E-06 22368   0.832E-03    0.326E-03
DAV:   6    -0.125531758227E+03    0.50719E-06   -0.14735E-06 24816   0.430E-03
   9 F= -.12711688E+03 E0= -.12711609E+03  d E =-.698566E-02  mag=     0.0000
       N       E                     dE             d eps       ncg     rms          rms(c)
DAV:   1    -0.125534483940E+03   -0.27252E-02   -0.38667E+00 14208   0.639E+00    0.362E-01
DAV:   2    -0.125535426300E+03   -0.94236E-03   -0.19212E-02 26208   0.500E-01    0.217E-01
DAV:   3    -0.125535338344E+03    0.87955E-04   -0.23517E-03 22848   0.140E-01    0.313E-02
DAV:   4    -0.125535337129E+03    0.12149E-05   -0.12522E-04 23328   0.443E-02    0.164E-02
DAV:   5    -0.125535331187E+03    0.59424E-05   -0.18593E-05 23664   0.165E-02    0.523E-03
DAV:   6    -0.125535330373E+03    0.81371E-06   -0.63452E-06 24384   0.911E-03
  10 F= -.12711917E+03 E0= -.12711839E+03  d E =-.927958E-02  mag=     0.0000
       N       E                     dE             d eps       ncg     rms          rms(c)
DAV:   1    -0.125537610301E+03   -0.22791E-02   -0.84213E-01 14208   0.359E+00    0.202E-01
DAV:   2    -0.125537570211E+03    0.40090E-04   -0.87722E-03 26784   0.406E-01    0.116E-01
DAV:   3    -0.125537483920E+03    0.86291E-04   -0.10433E-03 19008   0.117E-01    0.433E-02
DAV:   4    -0.125537485598E+03   -0.16779E-05   -0.23470E-04 25920   0.505E-02    0.209E-02
DAV:   5    -0.125537490434E+03   -0.48358E-05   -0.12017E-05 23808   0.142E-02    0.665E-03
DAV:   6    -0.125537492672E+03   -0.22376E-05   -0.17602E-06 21120   0.550E-03    0.342E-03
DAV:   7    -0.125537494286E+03   -0.16138E-05   -0.36816E-07 24720   0.234E-03    0.125E-03
DAV:   8    -0.125537496869E+03   -0.25838E-05   -0.40234E-07 21120   0.217E-03    0.912E-04
DAV:   9    -0.125537500166E+03   -0.32967E-05   -0.41830E-07 21408   0.194E-03    0.681E-04
DAV:  10    -0.125537502012E+03   -0.18456E-05   -0.12504E-07 22416   0.102E-03    0.334E-04
DAV:  11    -0.125537502751E+03   -0.73918E-06   -0.21731E-08 22608   0.385E-04
  11 F= -.12712085E+03 E0= -.12712007E+03  d E =-.168027E-02  mag=     0.0000
       N       E                     dE             d eps       ncg     rms          rms(c)
DAV:   1    -0.125537733903E+03   -0.23189E-03   -0.75023E-02 14208   0.107E+00    0.602E-02
DAV:   2    -0.125537732082E+03    0.18206E-05   -0.79888E-04 27744   0.122E-01    0.348E-02
DAV:   3    -0.125537725483E+03    0.65986E-05   -0.90085E-05 21168   0.342E-02    0.130E-02
DAV:   4    -0.125537725811E+03   -0.32768E-06   -0.19804E-05 25584   0.147E-02    0.613E-03
DAV:   5    -0.125537726236E+03   -0.42474E-06   -0.99586E-07 22368   0.411E-03
  12 F= -.12712123E+03 E0= -.12712045E+03  d E =-.205961E-02  mag=    -0.0000
       N       E                     dE             d eps       ncg     rms          rms(c)
DAV:   1    -0.125539210634E+03   -0.14848E-02   -0.66317E-02 14208   0.966E-01    0.555E-02
DAV:   2    -0.125539173624E+03    0.37010E-04   -0.60962E-04 23712   0.863E-02    0.277E-02
DAV:   3    -0.125539170330E+03    0.32942E-05   -0.41249E-05 23232   0.220E-02    0.117E-02
DAV:   4    -0.125539171228E+03   -0.89822E-06   -0.52673E-06 21312   0.829E-03
  13 F= -.12712257E+03 E0= -.12712179E+03  d E =-.134450E-02  mag=    -0.0000
       N       E                     dE             d eps       ncg     rms          rms(c)
DAV:   1    -0.125539662364E+03   -0.49203E-03   -0.51184E-02 14208   0.849E-01    0.488E-02
DAV:   2    -0.125539635342E+03    0.27022E-04   -0.47261E-04 22656   0.760E-02    0.245E-02
DAV:   3    -0.125539633237E+03    0.21053E-05   -0.31159E-05 20832   0.191E-02    0.104E-02
DAV:   4    -0.125539633906E+03   -0.66902E-06   -0.42137E-06 21792   0.738E-03
  14 F= -.12712295E+03 E0= -.12712216E+03  d E =-.171896E-02  mag=    -0.0000
       N       E                     dE             d eps       ncg     rms          rms(c)
DAV:   1    -0.125539995140E+03   -0.36190E-03   -0.50558E-02 15936   0.929E-01    0.566E-02
DAV:   2    -0.125539961243E+03    0.33897E-04   -0.65138E-04 20736   0.108E-01    0.306E-02
DAV:   3    -0.125539943561E+03    0.17682E-04   -0.83719E-05 23616   0.357E-02    0.936E-03
DAV:   4    -0.125539943439E+03    0.12261E-06   -0.10411E-05 21600   0.123E-02    0.407E-03
DAV:   5    -0.125539943630E+03   -0.19096E-06   -0.46666E-07 24720   0.281E-03
  15 F= -.12712321E+03 E0= -.12712243E+03  d E =-.262191E-03  mag=     0.0000
       N       E                     dE             d eps       ncg     rms          rms(c)
DAV:   1    -0.125539964831E+03   -0.21393E-04   -0.29509E-03 16512   0.224E-01    0.136E-02
DAV:   2    -0.125539963145E+03    0.16862E-05   -0.37909E-05 23136   0.260E-02    0.735E-03
DAV:   3    -0.125539962480E+03    0.66519E-06   -0.46531E-06 18384   0.851E-03
  16 F= -.12712324E+03 E0= -.12712246E+03  d E =-.292803E-03  mag=    -0.0000
       N       E                     dE             d eps       ncg     rms          rms(c)
DAV:   1    -0.125540148781E+03   -0.18564E-03   -0.11912E-02 14688   0.433E-01    0.241E-02
DAV:   2    -0.125540137042E+03    0.11739E-04   -0.15853E-04 21216   0.466E-02    0.120E-02
DAV:   3    -0.125540135422E+03    0.16205E-05   -0.15423E-05 19968   0.140E-02    0.466E-03
DAV:   4    -0.125540135596E+03   -0.17418E-06   -0.18624E-06 20256   0.499E-03
  17 F= -.12712337E+03 E0= -.12712259E+03  d E =-.131362E-03  mag=    -0.0000
       N       E                     dE             d eps       ncg     rms          rms(c)
DAV:   1    -0.125540150084E+03   -0.14662E-04   -0.59346E-04 14784   0.966E-02    0.549E-03
DAV:   2    -0.125540149569E+03    0.51537E-06   -0.77810E-06 16608   0.104E-02
  18 F= -.12712338E+03 E0= -.12712259E+03  d E =-.135944E-03  mag=    -0.0000
       N       E                     dE             d eps       ncg     rms          rms(c)
DAV:   1    -0.125540285933E+03   -0.13585E-03   -0.34347E-03 14784   0.222E-01    0.149E-02
DAV:   2    -0.125540283482E+03    0.24518E-05   -0.54366E-05 20544   0.266E-02    0.785E-03
DAV:   3    -0.125540283063E+03    0.41872E-06   -0.44584E-06 19008   0.728E-03
  19 F= -.12712344E+03 E0= -.12712265E+03  d E =-.602176E-04  mag=     0.0000
       N       E                     dE             d eps       ncg     rms          rms(c)
DAV:   1    -0.125540336728E+03   -0.53246E-04   -0.11777E-03 14880   0.130E-01    0.913E-03
DAV:   2    -0.125540335922E+03    0.80556E-06   -0.18005E-05 19584   0.153E-02    0.486E-03
DAV:   3    -0.125540335861E+03    0.60529E-07   -0.16503E-06 26544   0.437E-03
  20 F= -.12712345E+03 E0= -.12712266E+03  d E =-.700291E-04  mag=    -0.0000
       N       E                     dE             d eps       ncg     rms          rms(c)
DAV:   1    -0.125540459141E+03   -0.12322E-03   -0.36189E-03 14400   0.239E-01    0.138E-02
DAV:   2    -0.125540458799E+03    0.34173E-06   -0.40722E-05 24096   0.273E-02    0.817E-03
DAV:   3    -0.125540457981E+03    0.81786E-06   -0.45987E-06 24336   0.837E-03
  21 F= -.12712348E+03 E0= -.12712269E+03  d E =-.300132E-04  mag=     0.0000
       N       E                     dE             d eps       ncg     rms          rms(c)
DAV:   1    -0.125540462794E+03   -0.39955E-05   -0.98284E-06 24528   0.127E-02    0.129E-03
DAV:   2    -0.125540462805E+03   -0.10825E-07   -0.74520E-08 24768   0.122E-03
  22 F= -.12712348E+03 E0= -.12712269E+03  d E =-.301673E-04  mag=     0.0000
       N       E                     dE             d eps       ncg     rms          rms(c)
DAV:   1    -0.125540545455E+03   -0.82661E-04   -0.80870E-04 14208   0.101E-01    0.537E-03
DAV:   2    -0.125540545622E+03   -0.16632E-06   -0.60741E-06 17568   0.101E-02
  23 F= -.12712350E+03 E0= -.12712272E+03  d E =-.270827E-04  mag=     0.0000
       N       E                     dE             d eps       ncg     rms          rms(c)
DAV:   1    -0.125540783687E+03   -0.23823E-03   -0.72297E-03 14208   0.302E-01    0.163E-02
DAV:   2    -0.125540785736E+03   -0.20483E-05   -0.52947E-05 19968   0.297E-02    0.100E-02
DAV:   3    -0.125540785980E+03   -0.24398E-06   -0.50170E-06 24864   0.782E-03
  24 F= -.12712358E+03 E0= -.12712279E+03  d E =-.100310E-03  mag=    -0.0000
       N       E                     dE             d eps       ncg     rms          rms(c)
DAV:   1    -0.125541220873E+03   -0.43514E-03   -0.29212E-02 14208   0.606E-01    0.322E-02
DAV:   2    -0.125541229118E+03   -0.82445E-05   -0.20306E-04 21984   0.583E-02    0.197E-02
DAV:   3    -0.125541228908E+03    0.20969E-06   -0.19832E-05 25344   0.153E-02    0.347E-03
DAV:   4    -0.125541228899E+03    0.88867E-08   -0.19696E-06 20544   0.527E-03
  25 F= -.12712369E+03 E0= -.12712290E+03  d E =-.209231E-03  mag=    -0.0000
       N       E                     dE             d eps       ncg     rms          rms(c)
DAV:   1    -0.125541935936E+03   -0.70703E-03   -0.11680E-01 14208   0.121E+00    0.641E-02
DAV:   2    -0.125541968120E+03   -0.32185E-04   -0.79814E-04 22656   0.116E-01    0.388E-02
DAV:   3    -0.125541963974E+03    0.41464E-05   -0.79424E-05 25584   0.305E-02    0.684E-03
DAV:   4    -0.125541963914E+03    0.59365E-07   -0.76179E-06 20256   0.104E-02
  26 F= -.12712375E+03 E0= -.12712297E+03  d E =-.277570E-03  mag=    -0.0000
       N       E                     dE             d eps       ncg     rms          rms(c)
DAV:   1    -0.125542059015E+03   -0.95042E-04   -0.12962E-03 14784   0.130E-01    0.702E-03
DAV:   2    -0.125542059622E+03   -0.60709E-06   -0.11208E-05 26016   0.140E-02    0.443E-03
DAV:   3    -0.125542059860E+03   -0.23737E-06   -0.10290E-06 18288   0.407E-03
  27 F= -.12712378E+03 E0= -.12712300E+03  d E =-.268820E-04  mag=     0.0000
       N       E                     dE             d eps       ncg     rms          rms(c)
DAV:   1    -0.125542325147E+03   -0.26552E-03   -0.11487E-02 14208   0.388E-01    0.201E-02
DAV:   2    -0.125542328719E+03   -0.35716E-05   -0.89875E-05 22608   0.393E-02    0.125E-02
DAV:   3    -0.125542328844E+03   -0.12554E-06   -0.89138E-06 18432   0.109E-02
  28 F= -.12712384E+03 E0= -.12712306E+03  d E =-.887112E-04  mag=    -0.0000
       N       E                     dE             d eps       ncg     rms          rms(c)
DAV:   1    -0.125542766310E+03   -0.43759E-03   -0.46045E-02 14208   0.777E-01    0.407E-02
DAV:   2    -0.125542780793E+03   -0.14484E-04   -0.35876E-04 24720   0.781E-02    0.252E-02
DAV:   3    -0.125542779935E+03    0.85805E-06   -0.36379E-05 23328   0.215E-02    0.503E-03
DAV:   4    -0.125542780160E+03   -0.22475E-06   -0.45910E-06 20592   0.811E-03
  29 F= -.12712388E+03 E0= -.12712310E+03  d E =-.125882E-03  mag=    -0.0000
       N       E                     dE             d eps       ncg     rms          rms(c)
DAV:   1    -0.125542990642E+03   -0.21071E-03   -0.63065E-03 14208   0.284E-01    0.147E-02
DAV:   2    -0.125542993046E+03   -0.24039E-05   -0.52937E-05 22224   0.289E-02    0.905E-03
DAV:   3    -0.125542993541E+03   -0.49514E-06   -0.45153E-06 17712   0.785E-03
  30 F= -.12712394E+03 E0= -.12712316E+03  d E =-.617506E-04  mag=     0.0000
       N       E                     dE             d eps       ncg     rms          rms(c)
DAV:   1    -0.125543560021E+03   -0.56698E-03   -0.56618E-02 14208   0.852E-01    0.436E-02
DAV:   2    -0.125543578743E+03   -0.18721E-04   -0.46001E-04 24288   0.847E-02    0.267E-02
DAV:   3    -0.125543579312E+03   -0.56907E-06   -0.40752E-05 23280   0.223E-02    0.569E-03
DAV:   4    -0.125543579994E+03   -0.68170E-06   -0.49031E-06 18480   0.857E-03
  31 F= -.12712407E+03 E0= -.12712329E+03  d E =-.193934E-03  mag=     0.0000
       N       E                     dE             d eps       ncg     rms          rms(c)
DAV:   1    -0.125544446107E+03   -0.86679E-03   -0.22631E-01 14208   0.170E+00    0.868E-02
DAV:   2    -0.125544521890E+03   -0.75783E-04   -0.18265E-03 22608   0.169E-01    0.530E-02
DAV:   3    -0.125544518583E+03    0.33063E-05   -0.16414E-04 25824   0.446E-02    0.113E-02
DAV:   4    -0.125544520384E+03   -0.18009E-05   -0.18337E-05 16608   0.163E-02    0.472E-03
DAV:   5    -0.125544521131E+03   -0.74674E-06   -0.22780E-06 21504   0.621E-03
  32 F= -.12712411E+03 E0= -.12712333E+03  d E =-.229513E-03  mag=    -0.0000
       N       E                     dE             d eps       ncg     rms          rms(c)
DAV:   1    -0.125544187918E+03    0.33247E-03   -0.32994E-02 14208   0.650E-01    0.330E-02
DAV:   2    -0.125544198081E+03   -0.10164E-04   -0.27050E-04 24240   0.654E-02    0.202E-02
DAV:   3    -0.125544198372E+03   -0.29090E-06   -0.23907E-05 14448   0.173E-02    0.435E-03
DAV:   4    -0.125544198789E+03   -0.41635E-06   -0.33159E-06 19872   0.732E-03
  33 F= -.12712413E+03 E0= -.12712335E+03  d E =-.252828E-03  mag=    -0.0000
       N       E                     dE             d eps       ncg     rms          rms(c)
DAV:   1    -0.125544571688E+03   -0.37332E-03   -0.25129E-02 14208   0.597E-01    0.286E-02
DAV:   2    -0.125544577170E+03   -0.54826E-05   -0.24320E-04 26304   0.632E-02    0.176E-02
DAV:   3    -0.125544576739E+03    0.43118E-06   -0.23163E-05 16704   0.180E-02    0.487E-03
DAV:   4    -0.125544577180E+03   -0.44029E-06   -0.40381E-06 17184   0.848E-03
  34 F= -.12712423E+03 E0= -.12712345E+03  d E =-.992092E-04  mag=    -0.0000
       N       E                     dE             d eps       ncg     rms          rms(c)
DAV:   1    -0.125544709204E+03   -0.13246E-03   -0.49231E-03 14208   0.264E-01    0.132E-02
DAV:   2    -0.125544710753E+03   -0.15497E-05   -0.49505E-05 25344   0.287E-02    0.819E-03
DAV:   3    -0.125544711085E+03   -0.33105E-06   -0.47331E-06 16704   0.851E-03
  35 F= -.12712424E+03 E0= -.12712346E+03  d E =-.109673E-03  mag=     0.0000
       N       E                     dE             d eps       ncg     rms          rms(c)
DAV:   1    -0.125544817242E+03   -0.10649E-03   -0.33284E-03 14208   0.228E-01    0.123E-02
DAV:   2    -0.125544817090E+03    0.15193E-06   -0.44758E-05 24768   0.278E-02    0.722E-03
DAV:   3    -0.125544816940E+03    0.14930E-06   -0.48319E-06 14640   0.882E-03
  36 F= -.12712426E+03 E0= -.12712348E+03  d E =-.194602E-04  mag=    -0.0000
       N       E                     dE             d eps       ncg     rms          rms(c)
DAV:   1    -0.125544817114E+03   -0.24221E-07   -0.11491E-06 14304   0.482E-03    0.146E-03
DAV:   2    -0.125544817110E+03    0.39890E-08   -0.20597E-07 16032   0.230E-03
  37 F= -.12712426E+03 E0= -.12712348E+03  d E =-.195504E-04  mag=    -0.0000
       N       E                     dE             d eps       ncg     rms          rms(c)
DAV:   1    -0.125544817306E+03   -0.19248E-06   -0.11287E-07 20064   0.168E-03    0.548E-04
DAV:   2    -0.125544817308E+03   -0.20027E-08   -0.65088E-08 18960   0.125E-03
  38 F= -.12712426E+03 E0= -.12712348E+03  d E =-.195904E-04  mag=    -0.0000
       N       E                     dE             d eps       ncg     rms          rms(c)
DAV:   1    -0.125544817634E+03   -0.32787E-06   -0.66597E-08 24000   0.119E-03    0.237E-04
DAV:   2    -0.125544817649E+03   -0.14505E-07   -0.66660E-09 23424   0.410E-04
  39 F= -.12712426E+03 E0= -.12712348E+03  d E =-.196137E-04  mag=    -0.0000
       N       E                     dE             d eps       ncg     rms          rms(c)
DAV:   1    -0.125544818309E+03   -0.67496E-06   -0.18211E-07 23040   0.172E-03    0.158E-04
DAV:   2    -0.125544818320E+03   -0.10661E-07   -0.52620E-09 24192   0.372E-04
  40 F= -.12712426E+03 E0= -.12712348E+03  d E =-.196506E-04  mag=    -0.0000
       N       E                     dE             d eps       ncg     rms          rms(c)
DAV:   1    -0.125544819610E+03   -0.13005E-05   -0.71118E-07 22896   0.335E-03    0.221E-04
DAV:   2    -0.125544819617E+03   -0.75479E-08   -0.94826E-09 26112   0.446E-04
  41 F= -.12712426E+03 E0= -.12712348E+03  d E =-.196796E-04  mag=    -0.0000
       N       E                     dE             d eps       ncg     rms          rms(c)
DAV:   1    -0.125544839686E+03   -0.20076E-04   -0.13919E-04 14208   0.469E-02    0.220E-03
DAV:   2    -0.125544839640E+03    0.46407E-07   -0.14088E-06 23904   0.497E-03
  42 F= -.12712427E+03 E0= -.12712348E+03  d E =-.244693E-05  mag=    -0.0000
       N       E                     dE             d eps       ncg     rms          rms(c)
DAV:   1    -0.125544868461E+03   -0.28775E-04   -0.33358E-04 14208   0.729E-02    0.365E-03
DAV:   2    -0.125544868315E+03    0.14667E-06   -0.31286E-06 21888   0.746E-03
  43 F= -.12712427E+03 E0= -.12712348E+03  d E =-.358562E-05  mag=    -0.0000
       N       E                     dE             d eps       ncg     rms          rms(c)
DAV:   1    -0.125544880642E+03   -0.12181E-04   -0.41614E-05 14208   0.246E-02    0.142E-03
DAV:   2    -0.125544880625E+03    0.16441E-07   -0.34080E-07 26064   0.244E-03
  44 F= -.12712427E+03 E0= -.12712348E+03  d E =-.119341E-05  mag=    -0.0000
       N       E                     dE             d eps       ncg     rms          rms(c)
DAV:   1    -0.125544916684E+03   -0.36042E-04   -0.39713E-04 14208   0.744E-02    0.342E-03
DAV:   2    -0.125544916514E+03    0.16918E-06   -0.29173E-06 15552   0.697E-03
  45 F= -.12712427E+03 E0= -.12712349E+03  d E =-.369593E-05  mag=    -0.0000
       N       E                     dE             d eps       ncg     rms          rms(c)
DAV:   1    -0.125544983781E+03   -0.67097E-04   -0.15815E-03 14208   0.149E-01    0.694E-03
DAV:   2    -0.125544983154E+03    0.62705E-06   -0.11604E-05 18816   0.138E-02    0.401E-03
DAV:   3    -0.125544983043E+03    0.11105E-06   -0.17828E-06 20352   0.470E-03
  46 F= -.12712427E+03 E0= -.12712349E+03  d E =-.353073E-05  mag=     0.0000
       N       E                     dE             d eps       ncg     rms          rms(c)
DAV:   1    -0.125544949922E+03    0.33232E-04   -0.42068E-04 14208   0.764E-02    0.325E-03
DAV:   2    -0.125544949797E+03    0.12497E-06   -0.34100E-06 21120   0.741E-03
  47 F= -.12712427E+03 E0= -.12712349E+03  d E =-.455898E-05  mag=     0.0000
       N       E                     dE             d eps       ncg     rms          rms(c)
DAV:   1    -0.125544962834E+03   -0.12912E-04   -0.51956E-05 14496   0.286E-02    0.135E-03
DAV:   2    -0.125544962823E+03    0.11417E-07   -0.72613E-07 15120   0.372E-03
  48 F= -.12712427E+03 E0= -.12712349E+03  d E =-.128737E-05  mag=     0.0000
       N       E                     dE             d eps       ncg     rms          rms(c)
DAV:   1    -0.125544990459E+03   -0.27625E-04   -0.24387E-04 14208   0.630E-02    0.336E-03
DAV:   2    -0.125544990297E+03    0.16181E-06   -0.30000E-06 14592   0.741E-03
  49 F= -.12712427E+03 E0= -.12712349E+03  d E =-.224098E-05  mag=    -0.0000
       N       E                     dE             d eps       ncg     rms          rms(c)
DAV:   1    -0.125545010381E+03   -0.19922E-04   -0.76903E-05 14400   0.349E-02    0.208E-03
DAV:   2    -0.125545010318E+03    0.63250E-07   -0.97443E-07 15168   0.424E-03
  50 F= -.12712427E+03 E0= -.12712349E+03  d E =-.107063E-05  mag=    -0.0000
       N       E                     dE             d eps       ncg     rms          rms(c)
DAV:   1    -0.125545036869E+03   -0.26487E-04   -0.14607E-04 14208   0.478E-02    0.259E-03
DAV:   2    -0.125545036772E+03    0.96404E-07   -0.16793E-06 14784   0.545E-03
  51 F= -.12712427E+03 E0= -.12712349E+03  d E =-.157635E-05  mag=    -0.0000
       N       E                     dE             d eps       ncg     rms          rms(c)
DAV:   1    -0.125545052616E+03   -0.15747E-04   -0.37666E-05 14208   0.244E-02    0.155E-03
DAV:   2    -0.125545052581E+03    0.34861E-07   -0.67101E-07 14400   0.345E-03
  52 F= -.12712428E+03 E0= -.12712349E+03  d E =-.751657E-06  mag=    -0.0000
       N       E                     dE             d eps       ncg     rms          rms(c)
DAV:   1    -0.125545078471E+03   -0.25855E-04   -0.10668E-04 14304   0.410E-02    0.250E-03
DAV:   2    -0.125545078374E+03    0.97113E-07   -0.15963E-06 14208   0.537E-03
  53 F= -.12712428E+03 E0= -.12712349E+03  d E =-.110721E-05  mag=     0.0000
       N       E                     dE             d eps       ncg     rms          rms(c)
DAV:   1    -0.125545097451E+03   -0.18980E-04   -0.40212E-05 14208   0.254E-02    0.150E-03
DAV:   2    -0.125545097422E+03    0.28941E-07   -0.56944E-07 14208   0.348E-03
  54 F= -.12712428E+03 E0= -.12712349E+03  d E =-.500438E-06  mag=    -0.0000
       N       E                     dE             d eps       ncg     rms          rms(c)
DAV:   1    -0.125545126293E+03   -0.28842E-04   -0.96961E-05 14304   0.392E-02    0.205E-03
DAV:   2    -0.125545126246E+03    0.46581E-07   -0.12528E-06 14304   0.505E-03
  55 F= -.12712428E+03 E0= -.12712349E+03  d E =-.802042E-06  mag=    -0.0000
       N       E                     dE             d eps       ncg     rms          rms(c)
DAV:   1    -0.125545146446E+03   -0.20153E-04   -0.41875E-05 14352   0.255E-02    0.142E-03
DAV:   2    -0.125545146411E+03    0.34586E-07   -0.57499E-07 14352   0.358E-03
  56 F= -.12712428E+03 E0= -.12712349E+03  d E =-.722425E-06  mag=     0.0000
       N       E                     dE             d eps       ncg     rms          rms(c)
DAV:   1    -0.125545206508E+03   -0.60062E-04   -0.38821E-04 14400   0.767E-02    0.379E-03
DAV:   2    -0.125545206314E+03    0.19460E-06   -0.43307E-06 14400   0.896E-03
  57 F= -.12712428E+03 E0= -.12712350E+03  d E =-.230128E-05  mag=     0.0000
       N       E                     dE             d eps       ncg     rms          rms(c)
DAV:   1    -0.125545324217E+03   -0.11771E-03   -0.15382E-03 14208   0.153E-01    0.761E-03
DAV:   2    -0.125545323593E+03    0.62438E-06   -0.16524E-05 15408   0.172E-02    0.467E-03
DAV:   3    -0.125545323650E+03   -0.56413E-07   -0.25778E-06 14592   0.648E-03
  58 F= -.12712428E+03 E0= -.12712350E+03  d E =-.300699E-05  mag=    -0.0000
       N       E                     dE             d eps       ncg     rms          rms(c)
DAV:   1    -0.125545278673E+03    0.44920E-04   -0.22970E-04 14496   0.591E-02    0.251E-03
DAV:   2    -0.125545278615E+03    0.58188E-07   -0.31740E-06 15216   0.780E-03
  59 F= -.12712428E+03 E0= -.12712350E+03  d E =-.322866E-05  mag=    -0.0000
       N       E                     dE             d eps       ncg     rms          rms(c)
DAV:   1    -0.125545300638E+03   -0.21964E-04   -0.54720E-05 20832   0.282E-02    0.109E-03
DAV:   2    -0.125545300615E+03    0.22923E-07   -0.81319E-07 16896   0.441E-03
  60 F= -.12712428E+03 E0= -.12712350E+03  d E =-.666218E-06  mag=    -0.0000
       N       E                     dE             d eps       ncg     rms          rms(c)
DAV:   1    -0.125545366254E+03   -0.65617E-04   -0.44517E-04 14208   0.820E-02    0.395E-03
DAV:   2    -0.125545366056E+03    0.19853E-06   -0.49481E-06 16032   0.955E-03
  61 F= -.12712428E+03 E0= -.12712350E+03  d E =-.210522E-05  mag=    -0.0000
       N       E                     dE             d eps       ncg     rms          rms(c)
DAV:   1    -0.125545494963E+03   -0.12871E-03   -0.17588E-03 14208   0.163E-01    0.786E-03
DAV:   2    -0.125545494482E+03    0.48140E-06   -0.18344E-05 15984   0.182E-02    0.498E-03
DAV:   3    -0.125545494575E+03   -0.93047E-07   -0.30001E-06 14976   0.707E-03
  62 F= -.12712428E+03 E0= -.12712350E+03  d E =-.261996E-05  mag=     0.0000
       N       E                     dE             d eps       ncg     rms          rms(c)
DAV:   1    -0.125545436746E+03    0.57736E-04   -0.36051E-04 15408   0.738E-02    0.309E-03
DAV:   2    -0.125545436665E+03    0.81035E-07   -0.45322E-06 16464   0.926E-03
  63 F= -.12712428E+03 E0= -.12712350E+03  d E =-.288488E-05  mag=    -0.0000
       N       E                     dE             d eps       ncg     rms          rms(c)
DAV:   1    -0.125545473603E+03   -0.36857E-04   -0.14440E-04 20688   0.456E-02    0.184E-03
DAV:   2    -0.125545473542E+03    0.60353E-07   -0.17124E-06 17376   0.599E-03
  64 F= -.12712428E+03 E0= -.12712350E+03  d E =-.106835E-05  mag=    -0.0000
       N       E                     dE             d eps       ncg     rms          rms(c)
DAV:   1    -0.125545584098E+03   -0.11050E-03   -0.11961E-03 14208   0.133E-01    0.641E-03
DAV:   2    -0.125545583607E+03    0.49112E-06   -0.12465E-05 16752   0.150E-02    0.394E-03
DAV:   3    -0.125545583662E+03   -0.54697E-07   -0.20109E-06 14496   0.593E-03
  65 F= -.12712429E+03 E0= -.12712350E+03  d E =-.377579E-05  mag=    -0.0000
       N       E                     dE             d eps       ncg     rms          rms(c)
DAV:   1    -0.125545803093E+03   -0.21949E-03   -0.48724E-03 14208   0.268E-01    0.126E-02
DAV:   2    -0.125545801616E+03    0.14761E-05   -0.49435E-05 17280   0.294E-02    0.773E-03
DAV:   3    -0.125545801537E+03    0.79534E-07   -0.71750E-06 15840   0.105E-02
  66 F= -.12712429E+03 E0= -.12712351E+03  d E =-.688789E-05  mag=     0.0000
       N       E                     dE             d eps       ncg     rms          rms(c)
DAV:   1    -0.125545896672E+03   -0.95055E-04   -0.96151E-04 15072   0.120E-01    0.601E-03
DAV:   2    -0.125545896329E+03    0.34275E-06   -0.10691E-05 14640   0.146E-02    0.381E-03
DAV:   3    -0.125545896685E+03   -0.35617E-06   -0.22661E-06 14640   0.715E-03
  67 F= -.12712429E+03 E0= -.12712351E+03  d E =-.301761E-05  mag=    -0.0000
       N       E                     dE             d eps       ncg     rms          rms(c)
DAV:   1    -0.125545976792E+03   -0.80463E-04   -0.70428E-04 14208   0.103E-01    0.494E-03
DAV:   2    -0.125545976542E+03    0.25030E-06   -0.81553E-06 15024   0.128E-02
  68 F= -.12712429E+03 E0= -.12712351E+03  d E =-.356562E-05  mag=     0.0000
       N       E                     dE             d eps       ncg     rms          rms(c)
DAV:   1    -0.125546133840E+03   -0.15705E-03   -0.27199E-03 14208   0.203E-01    0.987E-03
DAV:   2    -0.125546133011E+03    0.82951E-06   -0.29090E-05 14208   0.234E-02    0.625E-03
DAV:   3    -0.125546133407E+03   -0.39626E-06   -0.52250E-06 14208   0.101E-02
  69 F= -.12712429E+03 E0= -.12712351E+03  d E =-.181047E-05  mag=     0.0000
       N       E                     dE             d eps       ncg     rms          rms(c)
DAV:   1    -0.125545998198E+03    0.13481E-03   -0.20669E-03 14208   0.176E-01    0.771E-03
DAV:   2    -0.125545997634E+03    0.56396E-06   -0.25222E-05 18960   0.215E-02    0.484E-03
DAV:   3    -0.125545997611E+03    0.22620E-07   -0.40505E-06 20640   0.903E-03
  70 F= -.12712429E+03 E0= -.12712351E+03  d E =-.387101E-05  mag=    -0.0000
       N       E                     dE             d eps       ncg     rms          rms(c)
DAV:   1    -0.125546082280E+03   -0.84647E-04   -0.73236E-04 14208   0.104E-01    0.445E-03
DAV:   2    -0.125546082026E+03    0.25458E-06   -0.95087E-06 19056   0.137E-02
  71 F= -.12712429E+03 E0= -.12712351E+03  d E =-.138854E-05  mag=    -0.0000
       N       E                     dE             d eps       ncg     rms          rms(c)
DAV:   1    -0.125546334838E+03   -0.25256E-03   -0.65717E-03 14208   0.312E-01    0.152E-02
DAV:   2    -0.125546332607E+03    0.22318E-05   -0.67967E-05 18048   0.347E-02    0.931E-03
DAV:   3    -0.125546332685E+03   -0.78292E-07   -0.10531E-05 14832   0.132E-02    0.233E-03
DAV:   4    -0.125546332907E+03   -0.22209E-06   -0.35525E-06 15504   0.926E-03
  72 F= -.12712430E+03 E0= -.12712351E+03  d E =-.326778E-05  mag=    -0.0000
       N       E                     dE             d eps       ncg     rms          rms(c)
DAV:   1    -0.125546435821E+03   -0.10314E-03   -0.10642E-03 17712   0.126E-01    0.608E-03
DAV:   2    -0.125546435457E+03    0.36422E-06   -0.10866E-05 18816   0.139E-02    0.379E-03
DAV:   3    -0.125546435596E+03   -0.13933E-06   -0.17087E-06 14784   0.556E-03
  73 F= -.12712430E+03 E0= -.12712351E+03  d E =-.181679E-05  mag=     0.0000
       N       E                     dE             d eps       ncg     rms          rms(c)
DAV:   1    -0.125546530092E+03   -0.94635E-04   -0.91381E-04 14208   0.116E-01    0.557E-03
DAV:   2    -0.125546529814E+03    0.27816E-06   -0.97396E-06 14208   0.137E-02
  74 F= -.12712430E+03 E0= -.12712352E+03  d E =-.290909E-05  mag=     0.0000
       N       E                     dE             d eps       ncg     rms          rms(c)
DAV:   1    -0.125546716675E+03   -0.18658E-03   -0.35294E-03 14208   0.230E-01    0.111E-02
DAV:   2    -0.125546715747E+03    0.92777E-06   -0.35740E-05 14400   0.256E-02    0.697E-03
DAV:   3    -0.125546716030E+03   -0.28271E-06   -0.58132E-06 14304   0.100E-02
  75 F= -.12712430E+03 E0= -.12712352E+03  d E =-.289827E-05  mag=     0.0000
       N       E                     dE             d eps       ncg     rms          rms(c)
DAV:   1    -0.125546598579E+03    0.11717E-03   -0.14279E-03 14208   0.146E-01    0.622E-03
DAV:   2    -0.125546598196E+03    0.38210E-06   -0.17199E-05 18768   0.178E-02    0.392E-03
DAV:   3    -0.125546598250E+03   -0.53758E-07   -0.27594E-06 20592   0.747E-03
  76 F= -.12712430E+03 E0= -.12712352E+03  d E =-.354961E-05  mag=     0.0000
       N       E                     dE             d eps       ncg     rms          rms(c)
DAV:   1    -0.125546644657E+03   -0.46460E-04   -0.22104E-04 14208   0.576E-02    0.237E-03
DAV:   2    -0.125546644526E+03    0.13056E-06   -0.33263E-06 19296   0.857E-03
  77 F= -.12712430E+03 E0= -.12712352E+03  d E =-.342157E-05  mag=     0.0000
       N       E                     dE             d eps       ncg     rms          rms(c)
DAV:   1    -0.125546762470E+03   -0.11781E-03   -0.13541E-03 14208   0.142E-01    0.708E-03
DAV:   2    -0.125546761797E+03    0.67284E-06   -0.14980E-05 14448   0.166E-02    0.435E-03
DAV:   3    -0.125546761947E+03   -0.14966E-06   -0.26923E-06 14352   0.718E-03
  78 F= -.12712430E+03 E0= -.12712352E+03  d E =-.255900E-05  mag=    -0.0000
       N       E                     dE             d eps       ncg     rms          rms(c)
DAV:   1    -0.125546806494E+03   -0.44697E-04   -0.20841E-04 14208   0.558E-02    0.291E-03
DAV:   2    -0.125546806320E+03    0.17442E-06   -0.27911E-06 14208   0.807E-03
  79 F= -.12712430E+03 E0= -.12712352E+03  d E =-.295572E-05  mag=    -0.0000
       N       E                     dE             d eps       ncg     rms          rms(c)
DAV:   1    -0.125546895012E+03   -0.88517E-04   -0.79089E-04 14256   0.109E-01    0.552E-03
DAV:   2    -0.125546894593E+03    0.41911E-06   -0.91241E-06 14352   0.135E-02
  80 F= -.12712430E+03 E0= -.12712352E+03  d E =-.328595E-05  mag=     0.0000
       N       E                     dE             d eps       ncg     rms          rms(c)
DAV:   1    -0.125546920146E+03   -0.25134E-04   -0.59151E-05 14352   0.311E-02    0.218E-03
DAV:   2    -0.125546919926E+03    0.21965E-06   -0.14558E-06 14208   0.637E-03
  81 F= -.12712430E+03 E0= -.12712352E+03  d E =-.326487E-05  mag=     0.0000
       N       E                     dE             d eps       ncg     rms          rms(c)
DAV:   1    -0.125546904616E+03    0.15530E-04   -0.26729E-05 14208   0.203E-02    0.750E-04
DAV:   2    -0.125546904512E+03    0.10437E-06   -0.10420E-06 14208   0.526E-03
  82 F= -.12712430E+03 E0= -.12712352E+03  d E =-.335528E-05  mag=     0.0000
       N       E                     dE             d eps       ncg     rms          rms(c)
DAV:   1    -0.125546898708E+03    0.59080E-05   -0.34639E-06 19440   0.773E-03    0.504E-04
DAV:   2    -0.125546898695E+03    0.12726E-07   -0.92118E-08 14976   0.151E-03
  83 F= -.12712430E+03 E0= -.12712352E+03  d E =-.327334E-05  mag=     0.0000
       N       E                     dE             d eps       ncg     rms          rms(c)
DAV:   1    -0.125546896514E+03    0.21936E-05   -0.48063E-07 17520   0.295E-03    0.234E-04
DAV:   2    -0.125546896510E+03    0.47767E-08   -0.41727E-08 14208   0.104E-03
  84 F= -.12712430E+03 E0= -.12712352E+03  d E =-.328884E-05  mag=     0.0000
       N       E                     dE             d eps       ncg     rms          rms(c)
DAV:   1    -0.125546949157E+03   -0.52643E-04   -0.31862E-04 14208   0.701E-02    0.312E-03
DAV:   2    -0.125546949035E+03    0.12232E-06   -0.34715E-06 14208   0.782E-03
  85 F= -.12712430E+03 E0= -.12712352E+03  d E =-.111196E-05  mag=    -0.0000
       N       E                     dE             d eps       ncg     rms          rms(c)
DAV:   1    -0.125546992671E+03   -0.43514E-04   -0.21653E-04 14208   0.585E-02    0.299E-03
DAV:   2    -0.125546992580E+03    0.91011E-07   -0.22498E-06 15168   0.635E-03
  86 F= -.12712430E+03 E0= -.12712352E+03  d E =-.120284E-05  mag=     0.0000
       N       E                     dE             d eps       ncg     rms          rms(c)
DAV:   1    -0.125547050807E+03   -0.58136E-04   -0.41172E-04 14208   0.793E-02    0.401E-03
DAV:   2    -0.125547050578E+03    0.22879E-06   -0.42853E-06 14592   0.866E-03
  87 F= -.12712431E+03 E0= -.12712352E+03  d E =-.816854E-06  mag=     0.0000
       N       E                     dE             d eps       ncg     rms          rms(c)
DAV:   1    -0.125547081470E+03   -0.30663E-04   -0.11412E-04 14208   0.423E-02    0.239E-03
DAV:   2    -0.125547081402E+03    0.67130E-07   -0.11509E-06 16032   0.458E-03
  88 F= -.12712431E+03 E0= -.12712352E+03  d E =-.828701E-06  mag=     0.0000
       N       E                     dE             d eps       ncg     rms          rms(c)
DAV:   1    -0.125547109422E+03   -0.27953E-04   -0.10475E-04 14208   0.417E-02    0.207E-03
DAV:   2    -0.125547109376E+03    0.46273E-07   -0.13337E-06 14208   0.507E-03
  89 F= -.12712431E+03 E0= -.12712352E+03  d E =-.509173E-06  mag=     0.0000
       N       E                     dE             d eps       ncg     rms          rms(c)
DAV:   1    -0.125547112482E+03   -0.30602E-05   -0.11478E-06 14976   0.483E-03    0.674E-04
DAV:   2    -0.125547112478E+03    0.47685E-08   -0.52400E-08 14400   0.120E-03
  90 F= -.12712431E+03 E0= -.12712352E+03  d E =-.532307E-06  mag=    -0.0000
       N       E                     dE             d eps       ncg     rms          rms(c)
DAV:   1    -0.125547127937E+03   -0.15455E-04   -0.42660E-05 18864   0.258E-02    0.146E-03
DAV:   2    -0.125547127879E+03    0.57857E-07   -0.60427E-07 14304   0.324E-03
  91 F= -.12712431E+03 E0= -.12712352E+03  d E =-.268266E-06  mag=     0.0000
       N       E                     dE             d eps       ncg     rms          rms(c)
DAV:   1    -0.125547131613E+03   -0.36760E-05   -0.22664E-06 14304   0.629E-03    0.567E-04
DAV:   2    -0.125547131607E+03    0.64729E-08   -0.57575E-08 14208   0.120E-03
  92 F= -.12712431E+03 E0= -.12712352E+03  d E =-.269837E-06  mag=    -0.0000
       N       E                     dE             d eps       ncg     rms          rms(c)
DAV:   1    -0.125547130397E+03    0.12162E-05   -0.33990E-07 19056   0.242E-03    0.162E-04
DAV:   2    -0.125547130395E+03    0.24265E-08   -0.32309E-08 14304   0.901E-04
  93 F= -.12712431E+03 E0= -.12712352E+03  d E =-.280063E-06  mag=    -0.0000
       N       E                     dE             d eps       ncg     rms          rms(c)
DAV:   1    -0.125547136162E+03   -0.57653E-05   -0.88229E-06 15744   0.120E-02    0.621E-04
DAV:   2    -0.125547136155E+03    0.74751E-08   -0.11851E-07 23472   0.145E-03
  94 F= -.12712431E+03 E0= -.12712352E+03  d E =-.914995E-07  mag=    -0.0000
