  16  16   0  16
  0.2008693E+02  0.4974000E-09  0.4974000E-09  0.1500000E-08  0.5000000E-15
  1.000000000000000E-004
  CAR 
 Lattice                                 
      9.81405709    -21.14717650  301     -0.31212652      1.00000000
    -21.147  0.0000E+00  0.0000E+00  0.0000E+00  0.0000E+00
    -21.044  0.0000E+00  0.0000E+00  0.0000E+00  0.0000E+00
    -20.941  0.0000E+00  0.0000E+00  0.0000E+00  0.0000E+00
    -20.838  0.0000E+00  0.0000E+00  0.0000E+00  0.0000E+00
    -20.734  0.0000E+00  0.0000E+00  0.0000E+00  0.0000E+00
    -20.631  0.0000E+00  0.0000E+00  0.0000E+00  0.0000E+00
    -20.528  0.0000E+00  0.0000E+00  0.0000E+00  0.0000E+00
    -20.425  0.0000E+00  0.0000E+00  0.0000E+00  0.0000E+00
    -20.322  0.5836E-19  0.5836E-19  0.6023E-20  0.6023E-20
    -20.218  0.3798E-14  0.3798E-14  0.3920E-15  0.3920E-15
    -20.115  0.3573E-10  0.3573E-10  0.3688E-11  0.3688E-11
    -20.012  0.4691E-07  0.4691E-07  0.4845E-08  0.4845E-08
    -19.909  0.9318E-05  0.9318E-05  0.9665E-06  0.9665E-06
    -19.806  0.3088E-03  0.3088E-03  0.3284E-04  0.3284E-04
    -19.702  0.2075E-02  0.2075E-02  0.2470E-03  0.2470E-03
    -19.599  0.4299E-02  0.4299E-02  0.6907E-03  0.6907E-03
    -19.496  0.4755E-02  0.4755E-02  0.1181E-02  0.1181E-02
    -19.393  0.5100E-02  0.5100E-02  0.1708E-02  0.1708E-02
    -19.290  0.4437E-02  0.4437E-02  0.2166E-02  0.2166E-02
    -19.186  0.5572E-02  0.5572E-02  0.2741E-02  0.2741E-02
    -19.083  0.4341E-02  0.4341E-02  0.3189E-02  0.3189E-02
    -18.980  0.4677E-02  0.4677E-02  0.3671E-02  0.3671E-02
    -18.877  0.6118E-02  0.6118E-02  0.4303E-02  0.4303E-02
    -18.773  0.3836E-02  0.3836E-02  0.4699E-02  0.4699E-02
    -18.670  0.4421E-02  0.4421E-02  0.5155E-02  0.5155E-02
    -18.567  0.6361E-02  0.6361E-02  0.5811E-02  0.5811E-02
    -18.464  0.5132E-02  0.5132E-02  0.6341E-02  0.6341E-02
    -18.361  0.3021E-02  0.3021E-02  0.6653E-02  0.6653E-02
    -18.257  0.5290E-02  0.5290E-02  0.7199E-02  0.7199E-02
    -18.154  0.6895E-02  0.6895E-02  0.7910E-02  0.7910E-02
    -18.051  0.4514E-02  0.4514E-02  0.8376E-02  0.8376E-02
    -17.948  0.3722E-02  0.3722E-02  0.8760E-02  0.8760E-02
    -17.845  0.3732E-02  0.3732E-02  0.9146E-02  0.9146E-02
    -17.741  0.7447E-02  0.7447E-02  0.9914E-02  0.9914E-02
    -17.638  0.6115E-02  0.6115E-02  0.1055E-01  0.1055E-01
    -17.535  0.3286E-02  0.3286E-02  0.1088E-01  0.1088E-01
    -17.432  0.3809E-02  0.3809E-02  0.1128E-01  0.1128E-01
    -17.329  0.4703E-02  0.4703E-02  0.1176E-01  0.1176E-01
    -17.225  0.7140E-02  0.7140E-02  0.1250E-01  0.1250E-01
    -17.122  0.6363E-02  0.6363E-02  0.1316E-01  0.1316E-01
    -17.019  0.4252E-02  0.4252E-02  0.1360E-01  0.1360E-01
    -16.916  0.2286E-02  0.2286E-02  0.1383E-01  0.1383E-01
    -16.813  0.4890E-02  0.4890E-02  0.1434E-01  0.1434E-01
    -16.709  0.7239E-02  0.7239E-02  0.1508E-01  0.1508E-01
    -16.606  0.6355E-02  0.6355E-02  0.1574E-01  0.1574E-01
    -16.503  0.5206E-02  0.5206E-02  0.1628E-01  0.1628E-01
    -16.400  0.4421E-02  0.4421E-02  0.1673E-01  0.1673E-01
    -16.297  0.2507E-02  0.2507E-02  0.1699E-01  0.1699E-01
    -16.193  0.4176E-02  0.4176E-02  0.1742E-01  0.1742E-01
    -16.090  0.9218E-02  0.9218E-02  0.1837E-01  0.1837E-01
    -15.987  0.6835E-02  0.6835E-02  0.1908E-01  0.1908E-01
    -15.884  0.7820E-02  0.7820E-02  0.1989E-01  0.1989E-01
    -15.781  0.9751E-02  0.9751E-02  0.2089E-01  0.2089E-01
    -15.677  0.1052E-01  0.1052E-01  0.2198E-01  0.2198E-01
    -15.574  0.9696E-02  0.9696E-02  0.2298E-01  0.2298E-01
    -15.471  0.1377E-01  0.1377E-01  0.2440E-01  0.2440E-01
    -15.368  0.1602E-01  0.1602E-01  0.2605E-01  0.2605E-01
    -15.265  0.1309E-01  0.1309E-01  0.2740E-01  0.2740E-01
    -15.161  0.1219E-01  0.1219E-01  0.2866E-01  0.2866E-01
    -15.058  0.1437E-01  0.1437E-01  0.3014E-01  0.3014E-01
    -14.955  0.1127E-01  0.1127E-01  0.3131E-01  0.3131E-01
    -14.852  0.1031E-01  0.1031E-01  0.3237E-01  0.3237E-01
    -14.749  0.1125E-01  0.1125E-01  0.3353E-01  0.3353E-01
    -14.645  0.1058E-01  0.1058E-01  0.3462E-01  0.3462E-01
    -14.542  0.8302E-02  0.8302E-02  0.3548E-01  0.3548E-01
    -14.439  0.8182E-02  0.8182E-02  0.3633E-01  0.3633E-01
    -14.336  0.7306E-02  0.7306E-02  0.3708E-01  0.3708E-01
    -14.233  0.9521E-02  0.9521E-02  0.3806E-01  0.3806E-01
    -14.129  0.1652E-01  0.1652E-01  0.3977E-01  0.3977E-01
    -14.026  0.1255E-01  0.1255E-01  0.4106E-01  0.4106E-01
    -13.923  0.5780E-02  0.5780E-02  0.4166E-01  0.4166E-01
    -13.820  0.5367E-02  0.5367E-02  0.4221E-01  0.4221E-01
    -13.716  0.4744E-02  0.4744E-02  0.4270E-01  0.4270E-01
    -13.613  0.4365E-02  0.4365E-02  0.4315E-01  0.4315E-01
    -13.510  0.7471E-02  0.7471E-02  0.4392E-01  0.4392E-01
    -13.407  0.9392E-02  0.9392E-02  0.4489E-01  0.4489E-01
    -13.304  0.6783E-02  0.6783E-02  0.4559E-01  0.4559E-01
    -13.200  0.5925E-02  0.5925E-02  0.4620E-01  0.4620E-01
    -13.097  0.7500E-02  0.7500E-02  0.4698E-01  0.4698E-01
    -12.994  0.8523E-02  0.8523E-02  0.4786E-01  0.4786E-01
    -12.891  0.6690E-02  0.6690E-02  0.4855E-01  0.4855E-01
    -12.788  0.8132E-02  0.8132E-02  0.4939E-01  0.4939E-01
    -12.684  0.8611E-02  0.8611E-02  0.5028E-01  0.5028E-01
    -12.581  0.1039E-01  0.1039E-01  0.5135E-01  0.5135E-01
    -12.478  0.1409E-01  0.1409E-01  0.5280E-01  0.5280E-01
    -12.375  0.1068E-01  0.1068E-01  0.5391E-01  0.5391E-01
    -12.272  0.1376E-01  0.1376E-01  0.5533E-01  0.5533E-01
    -12.168  0.1224E-01  0.1224E-01  0.5659E-01  0.5659E-01
    -12.065  0.1286E-01  0.1286E-01  0.5792E-01  0.5792E-01
    -11.962  0.2012E-01  0.2012E-01  0.5999E-01  0.5999E-01
    -11.859  0.1636E-01  0.1636E-01  0.6168E-01  0.6168E-01
    -11.756  0.1204E-01  0.1204E-01  0.6292E-01  0.6292E-01
    -11.652  0.1127E-01  0.1127E-01  0.6409E-01  0.6409E-01
    -11.549  0.1072E-01  0.1072E-01  0.6519E-01  0.6519E-01
    -11.446  0.8256E-02  0.8256E-02  0.6605E-01  0.6605E-01
    -11.343  0.4619E-02  0.4619E-02  0.6652E-01  0.6652E-01
    -11.240  0.3099E-02  0.3099E-02  0.6684E-01  0.6684E-01
    -11.136  0.4964E-02  0.4964E-02  0.6736E-01  0.6736E-01
    -11.033  0.5637E-02  0.5637E-02  0.6794E-01  0.6794E-01
    -10.930  0.6167E-02  0.6167E-02  0.6857E-01  0.6857E-01
    -10.827  0.6975E-02  0.6975E-02  0.6929E-01  0.6929E-01
    -10.724  0.8937E-02  0.8937E-02  0.7022E-01  0.7022E-01
    -10.620  0.8702E-02  0.8702E-02  0.7111E-01  0.7111E-01
    -10.517  0.1357E-01  0.1357E-01  0.7251E-01  0.7251E-01
    -10.414  0.2075E-01  0.2075E-01  0.7466E-01  0.7466E-01
    -10.311  0.1657E-01  0.1657E-01  0.7637E-01  0.7637E-01
    -10.208  0.6444E-02  0.6444E-02  0.7703E-01  0.7703E-01
    -10.104  0.3667E-02  0.3667E-02  0.7741E-01  0.7741E-01
    -10.001  0.1096E-01  0.1096E-01  0.7854E-01  0.7854E-01
     -9.898  0.1889E-01  0.1889E-01  0.8049E-01  0.8049E-01
     -9.795  0.1003E-01  0.1003E-01  0.8153E-01  0.8153E-01
     -9.692  0.4822E-02  0.4822E-02  0.8202E-01  0.8202E-01
     -9.588  0.6300E-02  0.6300E-02  0.8267E-01  0.8267E-01
     -9.485  0.1306E-01  0.1306E-01  0.8402E-01  0.8402E-01
     -9.382  0.1987E-01  0.1987E-01  0.8607E-01  0.8607E-01
     -9.279  0.1600E-01  0.1600E-01  0.8772E-01  0.8772E-01
     -9.175  0.1788E-01  0.1788E-01  0.8957E-01  0.8957E-01
     -9.072  0.1451E-01  0.1451E-01  0.9107E-01  0.9107E-01
     -8.969  0.1146E-01  0.1146E-01  0.9225E-01  0.9225E-01
     -8.866  0.1477E-01  0.1477E-01  0.9377E-01  0.9377E-01
     -8.763  0.1712E-01  0.1712E-01  0.9554E-01  0.9554E-01
     -8.659  0.1425E-01  0.1425E-01  0.9701E-01  0.9701E-01
     -8.556  0.9951E-02  0.9951E-02  0.9804E-01  0.9804E-01
     -8.453  0.1366E-01  0.1366E-01  0.9945E-01  0.9945E-01
     -8.350  0.2116E-01  0.2116E-01  0.1016E+00  0.1016E+00
     -8.247  0.1574E-01  0.1574E-01  0.1033E+00  0.1033E+00
     -8.143  0.8413E-02  0.8413E-02  0.1041E+00  0.1041E+00
     -8.040  0.1379E-01  0.1379E-01  0.1055E+00  0.1055E+00
     -7.937  0.1425E-01  0.1425E-01  0.1070E+00  0.1070E+00
     -7.834  0.1810E-01  0.1810E-01  0.1089E+00  0.1089E+00
     -7.731  0.2579E-01  0.2579E-01  0.1115E+00  0.1115E+00
     -7.627  0.1800E-01  0.1800E-01  0.1134E+00  0.1134E+00
     -7.524  0.1365E-01  0.1365E-01  0.1148E+00  0.1148E+00
     -7.421  0.1537E-01  0.1537E-01  0.1164E+00  0.1164E+00
     -7.318  0.2027E-01  0.2027E-01  0.1185E+00  0.1185E+00
     -7.215  0.1932E-01  0.1932E-01  0.1205E+00  0.1205E+00
     -7.111  0.1495E-01  0.1495E-01  0.1220E+00  0.1220E+00
     -7.008  0.1472E-01  0.1472E-01  0.1235E+00  0.1235E+00
     -6.905  0.1828E-01  0.1828E-01  0.1254E+00  0.1254E+00
     -6.802  0.2462E-01  0.2462E-01  0.1280E+00  0.1280E+00
     -6.699  0.2575E-01  0.2575E-01  0.1306E+00  0.1306E+00
     -6.595  0.2761E-01  0.2761E-01  0.1335E+00  0.1335E+00
     -6.492  0.2464E-01  0.2464E-01  0.1360E+00  0.1360E+00
     -6.389  0.2669E-01  0.2669E-01  0.1388E+00  0.1388E+00
     -6.286  0.2762E-01  0.2762E-01  0.1416E+00  0.1416E+00
     -6.183  0.2180E-01  0.2180E-01  0.1439E+00  0.1439E+00
     -6.079  0.1673E-01  0.1673E-01  0.1456E+00  0.1456E+00
     -5.976  0.1533E-01  0.1533E-01  0.1472E+00  0.1472E+00
     -5.873  0.1563E-01  0.1563E-01  0.1488E+00  0.1488E+00
     -5.770  0.1674E-01  0.1674E-01  0.1505E+00  0.1505E+00
     -5.667  0.1938E-01  0.1938E-01  0.1525E+00  0.1525E+00
     -5.563  0.1270E-01  0.1270E-01  0.1538E+00  0.1538E+00
     -5.460  0.8033E-02  0.8033E-02  0.1547E+00  0.1547E+00
     -5.357  0.1471E-01  0.1471E-01  0.1562E+00  0.1562E+00
     -5.254  0.1949E-01  0.1949E-01  0.1582E+00  0.1582E+00
     -5.151  0.1630E-01  0.1630E-01  0.1599E+00  0.1599E+00
     -5.047  0.1170E-01  0.1170E-01  0.1611E+00  0.1611E+00
     -4.944  0.1602E-01  0.1602E-01  0.1627E+00  0.1627E+00
     -4.841  0.1760E-01  0.1760E-01  0.1646E+00  0.1646E+00
     -4.738  0.1125E-01  0.1125E-01  0.1657E+00  0.1657E+00
     -4.635  0.1075E-01  0.1075E-01  0.1668E+00  0.1668E+00
     -4.531  0.1400E-01  0.1400E-01  0.1683E+00  0.1683E+00
     -4.428  0.1920E-01  0.1920E-01  0.1703E+00  0.1703E+00
     -4.325  0.1806E-01  0.1806E-01  0.1721E+00  0.1721E+00
     -4.222  0.1764E-01  0.1764E-01  0.1739E+00  0.1739E+00
     -4.118  0.1878E-01  0.1878E-01  0.1759E+00  0.1759E+00
     -4.015  0.1987E-01  0.1987E-01  0.1779E+00  0.1779E+00
     -3.912  0.2273E-01  0.2273E-01  0.1803E+00  0.1803E+00
     -3.809  0.2459E-01  0.2459E-01  0.1828E+00  0.1828E+00
     -3.706  0.2780E-01  0.2780E-01  0.1857E+00  0.1857E+00
     -3.602  0.2860E-01  0.2860E-01  0.1886E+00  0.1886E+00
     -3.499  0.2232E-01  0.2232E-01  0.1909E+00  0.1909E+00
     -3.396  0.1411E-01  0.1411E-01  0.1924E+00  0.1924E+00
     -3.293  0.1301E-01  0.1301E-01  0.1937E+00  0.1937E+00
     -3.190  0.1352E-01  0.1352E-01  0.1951E+00  0.1951E+00
     -3.086  0.1172E-01  0.1172E-01  0.1963E+00  0.1963E+00
     -2.983  0.1358E-01  0.1358E-01  0.1977E+00  0.1977E+00
     -2.880  0.1530E-01  0.1530E-01  0.1993E+00  0.1993E+00
     -2.777  0.1081E-01  0.1081E-01  0.2004E+00  0.2004E+00
     -2.674  0.7982E-02  0.7982E-02  0.2013E+00  0.2013E+00
     -2.570  0.1025E-01  0.1025E-01  0.2023E+00  0.2023E+00
     -2.467  0.1902E-01  0.1902E-01  0.2043E+00  0.2043E+00
     -2.364  0.1529E-01  0.1529E-01  0.2059E+00  0.2059E+00
     -2.261  0.6304E-02  0.6304E-02  0.2065E+00  0.2065E+00
     -2.158  0.7566E-02  0.7566E-02  0.2073E+00  0.2073E+00
     -2.054  0.9342E-02  0.9342E-02  0.2083E+00  0.2083E+00
     -1.951  0.8701E-02  0.8701E-02  0.2091E+00  0.2091E+00
     -1.848  0.9657E-02  0.9657E-02  0.2101E+00  0.2101E+00
     -1.745  0.9094E-02  0.9094E-02  0.2111E+00  0.2111E+00
     -1.642  0.6205E-02  0.6205E-02  0.2117E+00  0.2117E+00
     -1.538  0.7306E-02  0.7306E-02  0.2125E+00  0.2125E+00
     -1.435  0.1046E-01  0.1046E-01  0.2136E+00  0.2136E+00
     -1.332  0.6028E-02  0.6028E-02  0.2142E+00  0.2142E+00
     -1.229  0.5131E-02  0.5131E-02  0.2147E+00  0.2147E+00
     -1.126  0.7564E-02  0.7564E-02  0.2155E+00  0.2155E+00
     -1.022  0.6184E-02  0.6184E-02  0.2161E+00  0.2161E+00
     -0.919  0.6549E-02  0.6549E-02  0.2168E+00  0.2168E+00
     -0.816  0.4808E-02  0.4808E-02  0.2173E+00  0.2173E+00
     -0.713  0.2081E-02  0.2081E-02  0.2175E+00  0.2175E+00
     -0.610  0.1374E-02  0.1374E-02  0.2177E+00  0.2177E+00
     -0.506  0.3872E-02  0.3872E-02  0.2181E+00  0.2181E+00
     -0.403  0.4109E-02  0.4109E-02  0.2185E+00  0.2185E+00
     -0.300  0.2871E-02  0.2871E-02  0.2188E+00  0.2188E+00
     -0.197  0.1792E-02  0.1792E-02  0.2190E+00  0.2190E+00
     -0.094  0.2779E-02  0.2779E-02  0.2192E+00  0.2192E+00
      0.010  0.3246E-02  0.3246E-02  0.2196E+00  0.2196E+00
      0.113  0.3523E-02  0.3523E-02  0.2199E+00  0.2199E+00
      0.216  0.6692E-02  0.6692E-02  0.2206E+00  0.2206E+00
      0.319  0.8207E-02  0.8207E-02  0.2215E+00  0.2215E+00
      0.422  0.1015E-01  0.1015E-01  0.2225E+00  0.2225E+00
      0.526  0.9746E-02  0.9746E-02  0.2235E+00  0.2235E+00
      0.629  0.7610E-02  0.7610E-02  0.2243E+00  0.2243E+00
      0.732  0.5595E-02  0.5595E-02  0.2249E+00  0.2249E+00
      0.835  0.1048E-01  0.1048E-01  0.2260E+00  0.2260E+00
      0.939  0.1006E-01  0.1006E-01  0.2270E+00  0.2270E+00
      1.042  0.7363E-02  0.7363E-02  0.2278E+00  0.2278E+00
      1.145  0.1080E-01  0.1080E-01  0.2289E+00  0.2289E+00
      1.248  0.1670E-01  0.1670E-01  0.2306E+00  0.2306E+00
      1.351  0.1687E-01  0.1687E-01  0.2324E+00  0.2324E+00
      1.455  0.1288E-01  0.1288E-01  0.2337E+00  0.2337E+00
      1.558  0.8389E-02  0.8389E-02  0.2346E+00  0.2346E+00
      1.661  0.6121E-02  0.6121E-02  0.2352E+00  0.2352E+00
      1.764  0.8159E-02  0.8159E-02  0.2360E+00  0.2360E+00
      1.867  0.1102E-01  0.1102E-01  0.2372E+00  0.2372E+00
      1.971  0.1034E-01  0.1034E-01  0.2382E+00  0.2382E+00
      2.074  0.1300E-01  0.1300E-01  0.2396E+00  0.2396E+00
      2.177  0.1132E-01  0.1132E-01  0.2407E+00  0.2407E+00
      2.280  0.1176E-01  0.1176E-01  0.2420E+00  0.2420E+00
      2.383  0.7440E-02  0.7440E-02  0.2427E+00  0.2427E+00
      2.487  0.4715E-02  0.4715E-02  0.2432E+00  0.2432E+00
      2.590  0.1256E-01  0.1256E-01  0.2445E+00  0.2445E+00
      2.693  0.1472E-01  0.1472E-01  0.2460E+00  0.2460E+00
      2.796  0.1217E-01  0.1217E-01  0.2473E+00  0.2473E+00
      2.899  0.1274E-01  0.1274E-01  0.2486E+00  0.2486E+00
      3.003  0.8621E-02  0.8621E-02  0.2495E+00  0.2495E+00
      3.106  0.1144E-01  0.1144E-01  0.2507E+00  0.2507E+00
      3.209  0.1719E-01  0.1719E-01  0.2524E+00  0.2524E+00
      3.312  0.1842E-01  0.1842E-01  0.2543E+00  0.2543E+00
      3.415  0.1832E-01  0.1832E-01  0.2562E+00  0.2562E+00
      3.519  0.1345E-01  0.1345E-01  0.2576E+00  0.2576E+00
      3.622  0.2012E-01  0.2012E-01  0.2597E+00  0.2597E+00
      3.725  0.2218E-01  0.2218E-01  0.2620E+00  0.2620E+00
      3.828  0.2084E-01  0.2084E-01  0.2641E+00  0.2641E+00
      3.931  0.1898E-01  0.1898E-01  0.2661E+00  0.2661E+00
      4.035  0.1678E-01  0.1678E-01  0.2678E+00  0.2678E+00
      4.138  0.1782E-01  0.1782E-01  0.2697E+00  0.2697E+00
      4.241  0.2340E-01  0.2340E-01  0.2721E+00  0.2721E+00
      4.344  0.2725E-01  0.2725E-01  0.2749E+00  0.2749E+00
      4.447  0.2143E-01  0.2143E-01  0.2771E+00  0.2771E+00
      4.551  0.1636E-01  0.1636E-01  0.2788E+00  0.2788E+00
      4.654  0.2783E-01  0.2783E-01  0.2817E+00  0.2817E+00
      4.757  0.2793E-01  0.2793E-01  0.2845E+00  0.2845E+00
      4.860  0.1882E-01  0.1882E-01  0.2865E+00  0.2865E+00
      4.963  0.2159E-01  0.2159E-01  0.2887E+00  0.2887E+00
      5.067  0.2857E-01  0.2857E-01  0.2917E+00  0.2917E+00
      5.170  0.3279E-01  0.3279E-01  0.2951E+00  0.2950E+00
      5.273  0.2843E-01  0.2843E-01  0.2980E+00  0.2980E+00
      5.376  0.2566E-01  0.2566E-01  0.3006E+00  0.3006E+00
      5.479  0.2175E-01  0.2174E-01  0.3029E+00  0.3029E+00
      5.583  0.2625E-01  0.2625E-01  0.3056E+00  0.3056E+00
      5.686  0.2914E-01  0.2914E-01  0.3086E+00  0.3086E+00
      5.789  0.2444E-01  0.2444E-01  0.3111E+00  0.3111E+00
      5.892  0.2194E-01  0.2194E-01  0.3134E+00  0.3134E+00
      5.996  0.1713E-01  0.1713E-01  0.3151E+00  0.3151E+00
      6.099  0.2422E-01  0.2422E-01  0.3176E+00  0.3176E+00
      6.202  0.2233E-01  0.2234E-01  0.3200E+00  0.3200E+00
      6.305  0.1730E-01  0.1731E-01  0.3217E+00  0.3217E+00
      6.408  0.2057E-01  0.2057E-01  0.3239E+00  0.3239E+00
      6.512  0.2267E-01  0.2267E-01  0.3262E+00  0.3262E+00
      6.615  0.2400E-01  0.2400E-01  0.3287E+00  0.3287E+00
      6.718  0.2861E-01  0.2860E-01  0.3316E+00  0.3316E+00
      6.821  0.3014E-01  0.3014E-01  0.3347E+00  0.3347E+00
      6.924  0.3087E-01  0.3088E-01  0.3379E+00  0.3379E+00
      7.028  0.2621E-01  0.2621E-01  0.3406E+00  0.3406E+00
      7.131  0.2503E-01  0.2503E-01  0.3432E+00  0.3432E+00
      7.234  0.3013E-01  0.3013E-01  0.3463E+00  0.3463E+00
      7.337  0.3370E-01  0.3369E-01  0.3498E+00  0.3498E+00
      7.440  0.4051E-01  0.4051E-01  0.3540E+00  0.3540E+00
      7.544  0.4024E-01  0.4025E-01  0.3581E+00  0.3581E+00
      7.647  0.2987E-01  0.2987E-01  0.3612E+00  0.3612E+00
      7.750  0.3320E-01  0.3320E-01  0.3646E+00  0.3646E+00
      7.853  0.3496E-01  0.3496E-01  0.3683E+00  0.3683E+00
      7.956  0.2720E-01  0.2721E-01  0.3711E+00  0.3711E+00
      8.060  0.1798E-01  0.1799E-01  0.3729E+00  0.3729E+00
      8.163  0.1442E-01  0.1442E-01  0.3744E+00  0.3744E+00
      8.266  0.4843E-02  0.4843E-02  0.3749E+00  0.3749E+00
      8.369  0.5387E-03  0.5387E-03  0.3750E+00  0.3750E+00
      8.472  0.2829E-03  0.2829E-03  0.3750E+00  0.3750E+00
      8.576  0.8835E-04  0.8835E-04  0.3750E+00  0.3750E+00
      8.679  0.4418E-05  0.4418E-05  0.3750E+00  0.3750E+00
      8.782  0.3129E-07  0.3129E-07  0.3750E+00  0.3750E+00
      8.885  0.2923E-10  0.2923E-10  0.3750E+00  0.3750E+00
      8.988  0.3458E-14  0.3458E-14  0.3750E+00  0.3750E+00
      9.092  0.5836E-19  0.5836E-19  0.3750E+00  0.3750E+00
      9.195  0.0000E+00  0.0000E+00  0.3750E+00  0.3750E+00
      9.298  0.0000E+00  0.0000E+00  0.3750E+00  0.3750E+00
      9.401  0.0000E+00  0.0000E+00  0.3750E+00  0.3750E+00
      9.504  0.0000E+00  0.0000E+00  0.3750E+00  0.3750E+00
      9.608  0.0000E+00  0.0000E+00  0.3750E+00  0.3750E+00
      9.711  0.0000E+00  0.0000E+00  0.3750E+00  0.3750E+00
      9.814  0.0000E+00  0.0000E+00  0.3750E+00  0.3750E+00
