<?xml version="1.0" encoding="ISO-8859-1"?>
<modeling>
 <generator>
  <i name="program" type="string">vasp </i>
  <i name="version" type="string">6.3.2  </i>
  <i name="subversion" type="string">27Jun22 (build Dec 22 2022 13:13:19) complex                          parallel </i>
  <i name="platform" type="string">LinuxIFC </i>
  <i name="date" type="string">2023 08 22 </i>
  <i name="time" type="string">23:18:30 </i>
 </generator>
 <incar>
  <i type="string" name="SYSTEM">Lattice</i>
  <i type="int" name="ISTART">     0</i>
  <i type="string" name="PREC">Accurate</i>
  <i type="string" name="ALGO">Normal</i>
  <i type="int" name="ISPIN">     2</i>
  <i type="int" name="ICHARG">     2</i>
  <i type="int" name="NELM">    64</i>
  <i type="int" name="IBRION">     2</i>
  <i name="EDIFF">      0.00000100</i>
  <i name="EDIFFG">     -0.00100000</i>
  <i type="int" name="NSW">   128</i>
  <i type="int" name="ISIF">     2</i>
  <i name="ENCUT">    450.00000000</i>
  <i name="POTIM">      0.50000000</i>
  <i type="int" name="ISMEAR">     0</i>
  <i name="SIGMA">      0.10000000</i>
  <i type="logical" name="LWAVE"> F  </i>
  <i type="logical" name="LCHARG"> F  </i>
  <i type="string" name="GGA">PE</i>
  <i type="int" name="IVDW">    12</i>
 </incar>
 <primitive_cell>
  <structure name="primitive_cell" >
   <crystal>
    <varray name="basis" >
     <v>       4.30761036       2.48700000       0.00000000 </v>
     <v>      -4.30761036       2.48700000       0.00000000 </v>
     <v>       0.00000000       0.00000000      15.00000000 </v>
    </varray>
    <i name="volume">    321.39080884 </i>
    <varray name="rec_basis" >
     <v>       0.11607364       0.20104544       0.00000000 </v>
     <v>      -0.11607364       0.20104544       0.00000000 </v>
     <v>       0.00000000       0.00000000       0.06666667 </v>
    </varray>
   </crystal>
   <varray name="positions" >
    <v>       0.66888689       1.00000000       0.10000000 </v>
    <v>       0.33111211       1.00000000       0.10000000 </v>
    <v>       1.00000000       0.33111211       0.10000000 </v>
    <v>       1.00000000       0.66888689       0.10000000 </v>
    <v>       0.33111211       0.33111211       0.10000000 </v>
    <v>       0.66888689       0.66888689       0.10000000 </v>
    <v>       0.66666600       0.33333300       0.09922189 </v>
    <v>       0.33333300       0.66666600       0.10077811 </v>
    <v>       0.16666600       0.33333300       0.46773333 </v>
    <v>       0.33333300       0.16666600       0.46773333 </v>
    <v>       0.16666600       0.83333300       0.46773333 </v>
    <v>       0.33333300       0.66666600       0.46773333 </v>
    <v>       0.66666600       0.33333300       0.46773333 </v>
    <v>       0.83333300       0.16666600       0.46773333 </v>
    <v>       0.66666600       0.83333300       0.46773333 </v>
    <v>       0.83333300       0.66666600       0.46773333 </v>
   </varray>
  </structure>
  <varray name="primitive_index" >
   <v type="int" >        1 </v>
   <v type="int" >        2 </v>
   <v type="int" >        3 </v>
   <v type="int" >        4 </v>
   <v type="int" >        5 </v>
   <v type="int" >        6 </v>
   <v type="int" >        7 </v>
   <v type="int" >        8 </v>
   <v type="int" >        9 </v>
   <v type="int" >       10 </v>
   <v type="int" >       11 </v>
   <v type="int" >       12 </v>
   <v type="int" >       13 </v>
   <v type="int" >       14 </v>
   <v type="int" >       15 </v>
   <v type="int" >       16 </v>
  </varray>
 </primitive_cell>
 <kpoints>
  <generation param="Gamma">
   <v type="int" name="divisions">      12       12        1 </v>
   <v name="usershift">      0.00000000       0.00000000       0.00000000 </v>
   <v name="genvec1">      0.08333333      -0.00000000       0.00000000 </v>
   <v name="genvec2">     -0.00000000       0.08333333       0.00000000 </v>
   <v name="genvec3">      0.00000000       0.00000000       1.00000000 </v>
   <v name="shift">      0.00000000       0.00000000       0.00000000 </v>
  </generation>
  <varray name="kpointlist" >
   <v>       0.00000000       0.00000000       0.00000000 </v>
   <v>       0.08333333       0.00000000       0.00000000 </v>
   <v>       0.16666667      -0.00000000       0.00000000 </v>
   <v>       0.25000000      -0.00000000       0.00000000 </v>
   <v>       0.33333333       0.00000000       0.00000000 </v>
   <v>       0.41666667       0.00000000       0.00000000 </v>
   <v>       0.50000000      -0.00000000       0.00000000 </v>
   <v>       0.08333333       0.08333333       0.00000000 </v>
   <v>       0.16666667       0.08333333       0.00000000 </v>
   <v>       0.25000000       0.08333333       0.00000000 </v>
   <v>       0.33333333       0.08333333       0.00000000 </v>
   <v>       0.41666667       0.08333333       0.00000000 </v>
   <v>       0.16666667       0.16666667       0.00000000 </v>
   <v>       0.25000000       0.16666667       0.00000000 </v>
   <v>       0.33333333       0.16666667       0.00000000 </v>
   <v>       0.41666667       0.16666667       0.00000000 </v>
   <v>       0.25000000       0.25000000       0.00000000 </v>
   <v>       0.33333333       0.25000000       0.00000000 </v>
   <v>       0.33333333       0.33333333       0.00000000 </v>
  </varray>
  <varray name="weights" >
   <v>       0.00694444 </v>
   <v>       0.04166667 </v>
   <v>       0.04166667 </v>
   <v>       0.04166667 </v>
   <v>       0.04166667 </v>
   <v>       0.04166667 </v>
   <v>       0.02083333 </v>
   <v>       0.04166667 </v>
   <v>       0.08333333 </v>
   <v>       0.08333333 </v>
   <v>       0.08333333 </v>
   <v>       0.08333333 </v>
   <v>       0.04166667 </v>
   <v>       0.08333333 </v>
   <v>       0.08333333 </v>
   <v>       0.04166667 </v>
   <v>       0.04166667 </v>
   <v>       0.08333333 </v>
   <v>       0.01388889 </v>
  </varray>
 </kpoints>
 <parameters>
  <separator name="general" >
   <i type="string" name="SYSTEM">Lattice</i>
   <i type="logical" name="LCOMPAT"> F  </i>
  </separator>
  <separator name="electronic" >
   <i type="string" name="PREC">accura</i>
   <i name="ENMAX">    450.00000000</i>
   <i name="ENAUG">    644.87300000</i>
   <i name="EDIFF">      0.00000100</i>
   <i type="int" name="IALGO">    38</i>
   <i type="int" name="IWAVPR">    11</i>
   <i type="int" name="NBANDS">    48</i>
   <i type="int" name="NBANDSLOW">    -1</i>
   <i type="int" name="NBANDSHIGH">    -1</i>
   <i name="NELECT">     56.00000000</i>
   <i type="int" name="TURBO">     0</i>
   <i type="int" name="IRESTART">     0</i>
   <i type="int" name="NREBOOT">     0</i>
   <i type="int" name="NMIN">     0</i>
   <i name="EREF">      0.00000000</i>
   <separator name="electronic smearing" >
    <i type="int" name="ISMEAR">     0</i>
    <i name="SIGMA">      0.10000000</i>
    <i name="KSPACING">      0.50000000</i>
    <i type="logical" name="KGAMMA"> T  </i>
    <i type="logical" name="KBLOWUP"> T  </i>
   </separator>
   <separator name="electronic projectors" >
    <i type="logical" name="LREAL"> F  </i>
    <v name="ROPT">      0.00000000      0.00000000</v>
    <i type="int" name="LMAXPAW">  -100</i>
    <i type="int" name="LMAXMIX">     2</i>
    <i type="logical" name="NLSPLINE"> F  </i>
   </separator>
   <separator name="electronic startup" >
    <i type="int" name="ISTART">     0</i>
    <i type="int" name="ICHARG">     2</i>
    <i type="int" name="INIWAV">     1</i>
   </separator>
   <separator name="electronic spin" >
    <i type="int" name="ISPIN">     2</i>
    <i type="logical" name="LNONCOLLINEAR"> F  </i>
    <v name="MAGMOM">      1.00000000      1.00000000      1.00000000      1.00000000      1.00000000      1.00000000      1.00000000      1.00000000      1.00000000      1.00000000      1.00000000      1.00000000      1.00000000      1.00000000      1.00000000      1.00000000</v>
    <i name="NUPDOWN">     -1.00000000</i>
    <i type="logical" name="LSORBIT"> F  </i>
    <v name="SAXIS">      0.00000000      0.00000000      1.00000000</v>
    <i type="logical" name="LSPIRAL"> F  </i>
    <v name="QSPIRAL">      0.00000000      0.00000000      0.00000000</v>
    <i type="logical" name="LZEROZ"> F  </i>
   </separator>
   <separator name="electronic exchange-correlation" >
    <i type="logical" name="LASPH"> F  </i>
    <i type="logical" name="LMETAGGA"> F  </i>
   </separator>
   <separator name="electronic convergence" >
    <i type="int" name="NELM">    64</i>
    <i type="int" name="NELMDL">    -5</i>
    <i type="int" name="NELMIN">     2</i>
    <i name="ENINI">    450.00000000</i>
    <separator name="electronic convergence detail" >
     <i type="logical" name="LDIAG"> T  </i>
     <i type="logical" name="LSUBROT"> F  </i>
     <i name="WEIMIN">      0.00100000</i>
     <i name="EBREAK">      0.00000001</i>
     <i name="DEPER">      0.30000000</i>
     <i type="int" name="NRMM">     4</i>
     <i name="TIME">      0.40000000</i>
    </separator>
   </separator>
   <separator name="electronic mixer" >
    <i name="AMIX">      0.40000000</i>
    <i name="BMIX">      1.00000000</i>
    <i name="AMIN">      0.10000000</i>
    <i name="AMIX_MAG">      1.60000000</i>
    <i name="BMIX_MAG">      1.00000000</i>
    <separator name="electronic mixer details" >
     <i type="int" name="IMIX">     4</i>
     <i type="logical" name="MIXFIRST"> F  </i>
     <i type="int" name="MAXMIX">   -45</i>
     <i name="WC">    100.00000000</i>
     <i type="int" name="INIMIX">     1</i>
     <i type="int" name="MIXPRE">     1</i>
     <i type="int" name="MREMOVE">     5</i>
    </separator>
   </separator>
   <separator name="electronic dipolcorrection" >
    <i type="logical" name="LDIPOL"> F  </i>
    <i type="logical" name="LMONO"> F  </i>
    <i type="int" name="IDIPOL">     0</i>
    <i name="EPSILON">      1.00000000</i>
    <v name="DIPOL">   -100.00000000   -100.00000000   -100.00000000</v>
    <i name="EFIELD">      0.00000000</i>
   </separator>
  </separator>
  <separator name="grids" >
   <i type="int" name="NGX">    36</i>
   <i type="int" name="NGY">    36</i>
   <i type="int" name="NGZ">   108</i>
   <i type="int" name="NGXF">    72</i>
   <i type="int" name="NGYF">    72</i>
   <i type="int" name="NGZF">   216</i>
   <i type="logical" name="ADDGRID"> F  </i>
  </separator>
  <separator name="ionic" >
   <i type="int" name="NSW">   128</i>
   <i type="int" name="IBRION">     2</i>
   <i type="int" name="MDALGO">     0</i>
   <i type="int" name="ISIF">     2</i>
   <i name="PSTRESS">      0.00000000</i>
   <i name="EDIFFG">     -0.00100000</i>
   <i type="int" name="NFREE">     1</i>
   <i name="POTIM">      0.50000000</i>
   <i name="SMASS">     -3.00000000</i>
   <i name="SCALEE">      1.00000000</i>
  </separator>
  <separator name="ionic md" >
   <i name="TEBEG">      0.00010000</i>
   <i name="TEEND">      0.00010000</i>
   <i type="int" name="NBLOCK">     1</i>
   <i type="int" name="KBLOCK">   128</i>
   <i type="int" name="NPACO">   256</i>
   <i name="APACO">     10.00000000</i>
  </separator>
  <separator name="symmetry" >
   <i type="int" name="ISYM">     2</i>
   <i name="SYMPREC">      0.00001000</i>
  </separator>
  <separator name="dos" >
   <i type="int" name="LORBIT">     0</i>
   <v name="RWIGS">     -1.00000000     -1.00000000</v>
   <i type="int" name="NEDOS">   301</i>
   <i name="EMIN">     10.00000000</i>
   <i name="EMAX">    -10.00000000</i>
   <i name="EFERMI">      0.00000000</i>
  </separator>
  <separator name="writing" >
   <i type="int" name="NWRITE">     2</i>
   <i type="logical" name="LWAVE"> F  </i>
   <i type="logical" name="LDOWNSAMPLE"> F  </i>
   <i type="logical" name="LCHARG"> F  </i>
   <i type="logical" name="LPARD"> F  </i>
   <i type="logical" name="LVTOT"> F  </i>
   <i type="logical" name="LVHAR"> F  </i>
   <i type="logical" name="LELF"> F  </i>
   <i type="logical" name="LOPTICS"> F  </i>
   <v name="STM">      0.00000000      0.00000000      0.00000000      0.00000000      0.00000000      0.00000000      0.00000000</v>
  </separator>
  <separator name="performance" >
   <i type="int" name="NPAR">    48</i>
   <i type="int" name="NSIM">     4</i>
   <i type="int" name="NBLK">    -1</i>
   <i type="logical" name="LPLANE"> T  </i>
   <i type="logical" name="LSCALAPACK"> T  </i>
   <i type="logical" name="LSCAAWARE"> F  </i>
   <i type="logical" name="LSCALU"> F  </i>
   <i type="logical" name="LASYNC"> F  </i>
   <i type="logical" name="LORBITALREAL"> F  </i>
  </separator>
  <separator name="miscellaneous" >
   <i type="int" name="IDIOT">     3</i>
   <i type="int" name="PHON_NSTRUCT">    -1</i>
   <i type="logical" name="LMUSIC"> F  </i>
   <v name="POMASS">     10.81100000     12.01100000</v>
   <v name="DARWINR">      0.00000000      0.00000000</v>
   <v name="DARWINV">      1.00000000      1.00000000</v>
   <i type="logical" name="LCORR"> T  </i>
  </separator>
  <i type="logical" name="GGA_COMPAT"> T  </i>
  <i type="logical" name="LBERRY"> F  </i>
  <i type="int" name="ICORELEVEL">     0</i>
  <i type="logical" name="LDAU"> F  </i>
  <i type="int" name="I_CONSTRAINED_M">     0</i>
  <separator name="electronic exchange-correlation" >
   <i type="string" name="GGA">PE</i>
   <i type="int" name="VOSKOWN">     0</i>
   <i type="logical" name="LHFCALC"> F  </i>
   <i type="string" name="PRECFOCK"></i>
   <i type="logical" name="LSYMGRAD"> F  </i>
   <i type="logical" name="LHFONE"> F  </i>
   <i type="logical" name="LRHFCALC"> F  </i>
   <i type="logical" name="LTHOMAS"> F  </i>
   <i type="logical" name="LMODELHF"> F  </i>
   <i type="logical" name="LFOCKACE"> F  </i>
   <i name="ENCUT4O">     -1.00000000</i>
   <i type="int" name="EXXOEP">     0</i>
   <i type="int" name="FOURORBIT">     0</i>
   <i name="AEXX">      0.00000000</i>
   <i name="HFALPHA">      0.00000000</i>
   <i name="MCALPHA">      0.00000000</i>
   <i name="ALDAX">      1.00000000</i>
   <i name="AGGAX">      1.00000000</i>
   <i name="ALDAC">      1.00000000</i>
   <i name="AGGAC">      1.00000000</i>
   <i type="int" name="NKREDX">     1</i>
   <i type="int" name="NKREDY">     1</i>
   <i type="int" name="NKREDZ">     1</i>
   <i type="logical" name="SHIFTRED"> F  </i>
   <i type="logical" name="ODDONLY"> F  </i>
   <i type="logical" name="EVENONLY"> F  </i>
   <i type="int" name="LMAXFOCK">     0</i>
   <i type="int" name="NMAXFOCKAE">     0</i>
   <i type="logical" name="LFOCKAEDFT"> F  </i>
   <i name="HFSCREEN">      0.00000000</i>
   <i name="HFSCREENC">      0.00000000</i>
   <i type="int" name="NBANDSGWLOW">     0</i>
  </separator>
  <separator name="vdW DFT" >
   <i type="logical" name="LUSE_VDW"> F  </i>
   <i name="Zab_VDW">     -0.84910000</i>
   <i name="PARAM1">      0.12340000</i>
   <i name="PARAM2">      1.00000000</i>
   <i name="PARAM3">      0.00000000</i>
  </separator>
  <separator name="model GW" >
   <i type="int" name="MODEL_GW">     0</i>
   <i name="MODEL_EPS0">     12.05215533</i>
   <i name="MODEL_ALPHA">      1.00000000</i>
  </separator>
  <separator name="linear response parameters" >
   <i type="logical" name="LEPSILON"> F  </i>
   <i type="logical" name="LRPA"> F  </i>
   <i type="logical" name="LNABLA"> F  </i>
   <i type="logical" name="LVEL"> F  </i>
   <i name="CSHIFT">      0.10000000</i>
   <i name="OMEGAMAX">     -1.00000000</i>
   <i name="DEG_THRESHOLD">      0.00200000</i>
   <i name="RTIME">     -0.10000000</i>
   <i name="WPLASMAI">      0.00000000</i>
   <v name="DFIELD">      0.00000000      0.00000000      0.00000000</v>
   <v name="WPLASMA">      0.00000000      0.00000000      0.00000000      0.00000000      0.00000000      0.00000000      0.00000000      0.00000000      0.00000000</v>
  </separator>
  <separator name="orbital magnetization" >
   <i type="logical" name="NUCIND"> F  </i>
   <v name="MAGPOS">      0.00000000      0.00000000      0.00000000</v>
   <i type="logical" name="LNICSALL"> T  </i>
   <i type="logical" name="ORBITALMAG"> F  </i>
   <i type="logical" name="LMAGBLOCH"> F  </i>
   <i type="logical" name="LCHIMAG"> F  </i>
   <i type="logical" name="LGAUGE"> T  </i>
   <i type="int" name="MAGATOM">     0</i>
   <v name="MAGDIPOL">      0.00000000      0.00000000      0.00000000</v>
   <v name="AVECCONST">      0.00000000      0.00000000      0.00000000</v>
  </separator>
  <separator name="response functions" >
   <i type="logical" name="LFINITE_TEMPERATURE"> F  </i>
   <i type="logical" name="LADDER"> F  </i>
   <i type="logical" name="LRPAFORCE"> F  </i>
   <i type="logical" name="LFXC"> F  </i>
   <i type="logical" name="LHARTREE"> T  </i>
   <i type="int" name="IBSE">     0</i>
   <v type="int" name="KPOINT">    -1     0     0     0</v>
   <i type="logical" name="LTCTC"> F  </i>
   <i type="logical" name="LTCTE"> F  </i>
   <i type="logical" name="LTETE"> F  </i>
   <i type="logical" name="LTRIPLET"> F  </i>
   <i type="logical" name="LFXCEPS"> F  </i>
   <i type="logical" name="LFXHEG"> F  </i>
   <i type="int" name="NATURALO">     2</i>
   <i type="logical" name="LHOLEGF"> F  </i>
   <i type="logical" name="L2ORDER"> F  </i>
   <i type="logical" name="LDMP1"> F  </i>
   <i type="logical" name="LMP2LT"> F  </i>
   <i type="logical" name="LSMP2LT"> F  </i>
   <i type="logical" name="LGWLF"> F  </i>
   <i name="ENCUTGW">     -2.00000000</i>
   <i name="ENCUTGWSOFT">     -2.00000000</i>
   <i name="ENCUTLF">     -1.00000000</i>
   <i type="logical" name="LESF_SPLINES"> F  </i>
   <i type="int" name="LMAXMP2">    -1</i>
   <i name="SCISSOR">      0.00000000</i>
   <i type="int" name="NOMEGA">     0</i>
   <i type="int" name="NOMEGAR">     0</i>
   <i type="int" name="NBANDSGW">    -1</i>
   <i type="int" name="NBANDSO">    -1</i>
   <i type="int" name="NBANDSV">    -1</i>
   <i type="int" name="NELMGW">     1</i>
   <i type="int" name="NELMHF">     1</i>
   <i type="int" name="DIM">     3</i>
   <i type="int" name="IESPILON">     4</i>
   <i type="int" name="ANTIRES">     0</i>
   <i name="OMEGAMAX">    -30.00000000</i>
   <i name="OMEGAMIN">    -30.00000000</i>
   <i name="OMEGATL">   -200.00000000</i>
   <i type="int" name="OMEGAGRID">     0</i>
   <i name="CSHIFT">     -0.10000000</i>
   <i type="logical" name="LSELFENERGY"> F  </i>
   <i type="logical" name="LSPECTRAL"> F  </i>
   <i type="logical" name="LSPECTRALGW"> F  </i>
   <i type="logical" name="LSINGLES"> F  </i>
   <i type="logical" name="LFERMIGW"> F  </i>
   <i type="logical" name="ODDONLYGW"> F  </i>
   <i type="logical" name="EVENONLYGW"> F  </i>
   <i type="int" name="NKREDLFX">     1</i>
   <i type="int" name="NKREDLFY">     1</i>
   <i type="int" name="NKREDLFZ">     1</i>
   <i type="int" name="MAXMEM">  2800</i>
   <i type="int" name="TELESCOPE">     0</i>
   <i type="int" name="NTAUPAR">    -1</i>
   <i type="int" name="NOMEGAPAR">    -1</i>
   <i name="DAMP_NEWTON">      0.80000001</i>
   <i name="LAMBDA">      1.00000000</i>
  </separator>
  <separator name="External order field" >
   <i name="OFIELD_KAPPA">      0.00000000</i>
   <v name="OFIELD_K">      0.00000000      0.00000000      0.00000000</v>
   <i name="OFIELD_Q6_NEAR">      0.00000000</i>
   <i name="OFIELD_Q6_FAR">      0.00000000</i>
   <i name="OFIELD_A">      0.00000000</i>
  </separator>
  <separator name="optional k-points parameters" >
   <i type="int" name="KPOINTS_OPT_MODE">     1</i>
   <i type="logical" name="LKPOINTS_OPT"> F  </i>
  </separator>
  <separator name="solvation model" >
   <i type="logical" name="LSOL"> F  </i>
  </separator>
 </parameters>
 <atominfo>
  <atoms>      16 </atoms>
  <types>       2 </types>
  <array name="atoms" >
   <dimension dim="1">ion</dimension>
   <field type="string">element</field>
   <field type="int">atomtype</field>
   <set>
    <rc><c>B </c><c>   1</c></rc>
    <rc><c>B </c><c>   1</c></rc>
    <rc><c>B </c><c>   1</c></rc>
    <rc><c>B </c><c>   1</c></rc>
    <rc><c>B </c><c>   1</c></rc>
    <rc><c>B </c><c>   1</c></rc>
    <rc><c>B </c><c>   1</c></rc>
    <rc><c>B </c><c>   1</c></rc>
    <rc><c>C </c><c>   2</c></rc>
    <rc><c>C </c><c>   2</c></rc>
    <rc><c>C </c><c>   2</c></rc>
    <rc><c>C </c><c>   2</c></rc>
    <rc><c>C </c><c>   2</c></rc>
    <rc><c>C </c><c>   2</c></rc>
    <rc><c>C </c><c>   2</c></rc>
    <rc><c>C </c><c>   2</c></rc>
   </set>
  </array>
  <array name="atomtypes" >
   <dimension dim="1">type</dimension>
   <field type="int">atomspertype</field>
   <field type="string">element</field>
   <field>mass</field>
   <field>valence</field>
   <field type="string">pseudopotential</field>
   <set>
    <rc><c>   8</c><c>B </c><c>     10.81100000</c><c>      3.00000000</c><c>  PAW_PBE B 06Sep2000                   </c></rc>
    <rc><c>   8</c><c>C </c><c>     12.01100000</c><c>      4.00000000</c><c>  PAW_PBE C 08Apr2002                   </c></rc>
   </set>
  </array>
 </atominfo>
 <structure name="initialpos" >
  <crystal>
   <varray name="basis" >
    <v>       4.30761036       2.48700000       0.00000000 </v>
    <v>      -4.30761036       2.48700000       0.00000000 </v>
    <v>       0.00000000       0.00000000      15.00000000 </v>
   </varray>
   <i name="volume">    321.39080884 </i>
   <varray name="rec_basis" >
    <v>       0.11607364       0.20104544       0.00000000 </v>
    <v>      -0.11607364       0.20104544       0.00000000 </v>
    <v>       0.00000000       0.00000000       0.06666667 </v>
   </varray>
  </crystal>
  <varray name="positions" >
   <v>       0.66888689       0.00000000       0.10000000 </v>
   <v>       0.33111211       0.00000000       0.10000000 </v>
   <v>       0.00000000       0.33111211       0.10000000 </v>
   <v>       0.00000000       0.66888689       0.10000000 </v>
   <v>       0.33111211       0.33111211       0.10000000 </v>
   <v>       0.66888689       0.66888689       0.10000000 </v>
   <v>       0.66666600       0.33333300       0.09922189 </v>
   <v>       0.33333300       0.66666600       0.10077811 </v>
   <v>       0.16666600       0.33333300       0.46773333 </v>
   <v>       0.33333300       0.16666600       0.46773333 </v>
   <v>       0.16666600       0.83333300       0.46773333 </v>
   <v>       0.33333300       0.66666600       0.46773333 </v>
   <v>       0.66666600       0.33333300       0.46773333 </v>
   <v>       0.83333300       0.16666600       0.46773333 </v>
   <v>       0.66666600       0.83333300       0.46773333 </v>
   <v>       0.83333300       0.66666600       0.46773333 </v>
  </varray>
 </structure>
 <calculation>
  <scstep>
   <time name="dav">    1.45    1.47</time>
   <time name="total">    1.50    1.51</time>
   <energy>
    <i name="alphaZ">     60.59237790 </i>
    <i name="ewald">   1899.91534151 </i>
    <i name="hartreedc">  -3313.16765259 </i>
    <i name="XCdc">    163.56509329 </i>
    <i name="pawpsdc">   1214.24570090 </i>
    <i name="pawaedc">  -1211.68112031 </i>
    <i name="eentropy">     -0.01178818 </i>
    <i name="bandstr">   -372.43758468 </i>
    <i name="atom">   1746.50554237 </i>
    <i name="e_fr_energy">    187.52591021 </i>
    <i name="e_wo_entrp">    187.53769839 </i>
    <i name="e_0_energy">    187.53180430 </i>
   </energy>
  </scstep>
  <scstep>
   <time name="dav">    2.39    2.42</time>
   <time name="total">    2.39    2.42</time>
   <energy>
    <i name="e_fr_energy">   -118.91000570 </i>
    <i name="e_wo_entrp">   -118.89629485 </i>
    <i name="e_0_energy">   -118.90315027 </i>
   </energy>
  </scstep>
  <scstep>
   <time name="dav">    2.50    2.52</time>
   <time name="total">    2.50    2.53</time>
   <energy>
    <i name="e_fr_energy">   -127.99943420 </i>
    <i name="e_wo_entrp">   -127.98712688 </i>
    <i name="e_0_energy">   -127.99328054 </i>
   </energy>
  </scstep>
  <scstep>
   <time name="dav">    2.45    2.48</time>
   <time name="total">    2.45    2.48</time>
   <energy>
    <i name="e_fr_energy">   -128.03079753 </i>
    <i name="e_wo_entrp">   -128.01847617 </i>
    <i name="e_0_energy">   -128.02463685 </i>
   </energy>
  </scstep>
  <scstep>
   <time name="dav">    2.34    2.36</time>
   <time name="total">    2.44    2.48</time>
   <energy>
    <i name="e_fr_energy">   -128.03082997 </i>
    <i name="e_wo_entrp">   -128.01850846 </i>
    <i name="e_0_energy">   -128.02466921 </i>
   </energy>
  </scstep>
  <scstep>
   <time name="dav">    2.01    2.03</time>
   <time name="total">    2.16    2.20</time>
   <energy>
    <i name="e_fr_energy">    -94.58344632 </i>
    <i name="e_wo_entrp">    -94.57228535 </i>
    <i name="e_0_energy">    -94.57786583 </i>
   </energy>
  </scstep>
  <scstep>
   <time name="dav">    2.29    2.32</time>
   <time name="total">    2.43    2.47</time>
   <energy>
    <i name="e_fr_energy">   -105.67240415 </i>
    <i name="e_wo_entrp">   -105.66295544 </i>
    <i name="e_0_energy">   -105.66767980 </i>
   </energy>
  </scstep>
  <scstep>
   <time name="dav">    2.12    2.14</time>
   <time name="total">    2.25    2.29</time>
   <energy>
    <i name="e_fr_energy">   -111.45232962 </i>
    <i name="e_wo_entrp">   -111.44293499 </i>
    <i name="e_0_energy">   -111.44763230 </i>
   </energy>
  </scstep>
  <scstep>
   <time name="dav">    1.97    2.00</time>
   <time name="total">    2.11    2.15</time>
   <energy>
    <i name="e_fr_energy">   -116.72209165 </i>
    <i name="e_wo_entrp">   -116.71950963 </i>
    <i name="e_0_energy">   -116.72080064 </i>
   </energy>
  </scstep>
  <scstep>
   <time name="dav">    2.31    2.33</time>
   <time name="total">    2.44    2.47</time>
   <energy>
    <i name="e_fr_energy">   -120.92242580 </i>
    <i name="e_wo_entrp">   -120.91756335 </i>
    <i name="e_0_energy">   -120.91999457 </i>
   </energy>
  </scstep>
  <scstep>
   <time name="dav">    2.22    2.24</time>
   <time name="total">    2.35    2.38</time>
   <energy>
    <i name="e_fr_energy">   -122.76202502 </i>
    <i name="e_wo_entrp">   -122.75881595 </i>
    <i name="e_0_energy">   -122.76042048 </i>
   </energy>
  </scstep>
  <scstep>
   <time name="dav">    2.42    2.44</time>
   <time name="total">    2.55    2.59</time>
   <energy>
    <i name="e_fr_energy">   -123.75805713 </i>
    <i name="e_wo_entrp">   -123.75332130 </i>
    <i name="e_0_energy">   -123.75568921 </i>
   </energy>
  </scstep>
  <scstep>
   <time name="dav">    2.18    2.20</time>
   <time name="total">    2.31    2.34</time>
   <energy>
    <i name="e_fr_energy">   -124.06103746 </i>
    <i name="e_wo_entrp">   -124.05498371 </i>
    <i name="e_0_energy">   -124.05801058 </i>
   </energy>
  </scstep>
  <scstep>
   <time name="dav">    1.90    1.92</time>
   <time name="total">    2.03    2.05</time>
   <energy>
    <i name="e_fr_energy">   -124.11321401 </i>
    <i name="e_wo_entrp">   -124.10712671 </i>
    <i name="e_0_energy">   -124.11017036 </i>
   </energy>
  </scstep>
  <scstep>
   <time name="dav">    1.65    1.66</time>
   <time name="total">    1.78    1.80</time>
   <energy>
    <i name="e_fr_energy">   -124.13665261 </i>
    <i name="e_wo_entrp">   -124.13058339 </i>
    <i name="e_0_energy">   -124.13361800 </i>
   </energy>
  </scstep>
  <scstep>
   <time name="dav">    1.73    1.75</time>
   <time name="total">    1.86    1.89</time>
   <energy>
    <i name="e_fr_energy">   -124.13821710 </i>
    <i name="e_wo_entrp">   -124.13216482 </i>
    <i name="e_0_energy">   -124.13519096 </i>
   </energy>
  </scstep>
  <scstep>
   <time name="dav">    1.58    1.59</time>
   <time name="total">    1.71    1.72</time>
   <energy>
    <i name="e_fr_energy">   -124.13878892 </i>
    <i name="e_wo_entrp">   -124.13274231 </i>
    <i name="e_0_energy">   -124.13576561 </i>
   </energy>
  </scstep>
  <scstep>
   <time name="dav">    1.60    1.62</time>
   <time name="total">    1.72    1.75</time>
   <energy>
    <i name="e_fr_energy">   -124.13885233 </i>
    <i name="e_wo_entrp">   -124.13279534 </i>
    <i name="e_0_energy">   -124.13582383 </i>
   </energy>
  </scstep>
  <scstep>
   <time name="dav">    1.49    1.50</time>
   <time name="total">    1.62    1.63</time>
   <energy>
    <i name="e_fr_energy">   -124.13891084 </i>
    <i name="e_wo_entrp">   -124.13284983 </i>
    <i name="e_0_energy">   -124.13588034 </i>
   </energy>
  </scstep>
  <scstep>
   <time name="dav">    1.57    1.58</time>
   <time name="total">    1.69    1.72</time>
   <energy>
    <i name="e_fr_energy">   -124.13894210 </i>
    <i name="e_wo_entrp">   -124.13288384 </i>
    <i name="e_0_energy">   -124.13591297 </i>
   </energy>
  </scstep>
  <scstep>
   <time name="dav">    1.48    1.49</time>
   <time name="total">    1.61    1.63</time>
   <energy>
    <i name="e_fr_energy">   -124.13898606 </i>
    <i name="e_wo_entrp">   -124.13292941 </i>
    <i name="e_0_energy">   -124.13595774 </i>
   </energy>
  </scstep>
  <scstep>
   <time name="dav">    1.77    1.78</time>
   <time name="total">    1.90    1.92</time>
   <energy>
    <i name="e_fr_energy">   -124.13900985 </i>
    <i name="e_wo_entrp">   -124.13295281 </i>
    <i name="e_0_energy">   -124.13598133 </i>
   </energy>
  </scstep>
  <scstep>
   <time name="dav">    2.16    2.17</time>
   <time name="total">    2.28    2.30</time>
   <energy>
    <i name="e_fr_energy">   -124.13901464 </i>
    <i name="e_wo_entrp">   -124.13295738 </i>
    <i name="e_0_energy">   -124.13598601 </i>
   </energy>
  </scstep>
  <scstep>
   <time name="dav">    2.04    2.05</time>
   <time name="total">    2.16    2.19</time>
   <energy>
    <i name="e_fr_energy">   -124.13901782 </i>
    <i name="e_wo_entrp">   -124.13296038 </i>
    <i name="e_0_energy">   -124.13598910 </i>
   </energy>
  </scstep>
  <scstep>
   <time name="dav">    1.86    1.87</time>
   <time name="total">    1.99    2.01</time>
   <energy>
    <i name="e_fr_energy">   -124.13901937 </i>
    <i name="e_wo_entrp">   -124.13296200 </i>
    <i name="e_0_energy">   -124.13599069 </i>
   </energy>
  </scstep>
  <scstep>
   <time name="dav">    2.34    2.37</time>
   <time name="total">    2.38    2.40</time>
   <energy>
    <i name="alphaZ">     60.59237790 </i>
    <i name="ewald">   1899.91534151 </i>
    <i name="hartreedc">  -3510.04987498 </i>
    <i name="XCdc">    168.44130163 </i>
    <i name="pawpsdc">   5835.57918246 </i>
    <i name="pawaedc">  -5834.96684472 </i>
    <i name="eentropy">     -0.00605722 </i>
    <i name="bandstr">   -490.14998873 </i>
    <i name="atom">   1746.50554237 </i>
    <i name="e_fr_energy">   -124.13901978 </i>
    <i name="e_wo_entrp">   -124.13296256 </i>
    <i name="e_0_energy">   -124.13599117 </i>
   </energy>
  </scstep>
  <structure>
   <crystal>
    <varray name="basis" >
     <v>       4.30761036       2.48700000       0.00000000 </v>
     <v>      -4.30761036       2.48700000       0.00000000 </v>
     <v>       0.00000000       0.00000000      15.00000000 </v>
    </varray>
    <i name="volume">    321.39080884 </i>
    <varray name="rec_basis" >
     <v>       0.11607364       0.20104544       0.00000000 </v>
     <v>      -0.11607364       0.20104544       0.00000000 </v>
     <v>       0.00000000       0.00000000       0.06666667 </v>
    </varray>
   </crystal>
   <varray name="positions" >
    <v>       0.66888689       0.00000000       0.10000000 </v>
    <v>       0.33111211       0.00000000       0.10000000 </v>
    <v>       0.00000000       0.33111211       0.10000000 </v>
    <v>       0.00000000       0.66888689       0.10000000 </v>
    <v>       0.33111211       0.33111211       0.10000000 </v>
    <v>       0.66888689       0.66888689       0.10000000 </v>
    <v>       0.66666600       0.33333300       0.09922189 </v>
    <v>       0.33333300       0.66666600       0.10077811 </v>
    <v>       0.16666600       0.33333300       0.46773333 </v>
    <v>       0.33333300       0.16666600       0.46773333 </v>
    <v>       0.16666600       0.83333300       0.46773333 </v>
    <v>       0.33333300       0.66666600       0.46773333 </v>
    <v>       0.66666600       0.33333300       0.46773333 </v>
    <v>       0.83333300       0.16666600       0.46773333 </v>
    <v>       0.66666600       0.83333300       0.46773333 </v>
    <v>       0.83333300       0.66666600       0.46773333 </v>
   </varray>
  </structure>
  <varray name="forces" >
   <v>       0.16284355       0.09402093       0.00839640 </v>
   <v>      -0.16284629      -0.09401618       0.00839640 </v>
   <v>       0.16284355      -0.09402093       0.00839640 </v>
   <v>      -0.16284629       0.09401618       0.00839640 </v>
   <v>       0.00000274      -0.18803711       0.00839640 </v>
   <v>       0.00000274       0.18803711       0.00839640 </v>
   <v>      -0.00000000       0.00000000       0.00680067 </v>
   <v>       0.00000000       0.00000000       0.01184620 </v>
   <v>       0.00020808      -0.00036040      -0.00863289 </v>
   <v>      -0.00020262      -0.00035095      -0.00862616 </v>
   <v>      -0.00041616       0.00000000      -0.00863289 </v>
   <v>       0.00000000       0.00000000      -0.00863725 </v>
   <v>      -0.00000000       0.00000000      -0.00861088 </v>
   <v>       0.00040524       0.00000000      -0.00862616 </v>
   <v>       0.00020808       0.00036040      -0.00863289 </v>
   <v>      -0.00020262       0.00035095      -0.00862616 </v>
  </varray>
  <varray name="stress" >
   <v>       7.75671500       0.00000000       0.00000000 </v>
   <v>       0.00000000       7.75671500       0.00000000 </v>
   <v>       0.00000000       0.00000000      -3.67240825 </v>
  </varray>
  <energy>
   <i name="e_fr_energy">   -125.63305263 </i>
   <i name="e_wo_entrp">   -125.62699541 </i>
   <i name="e_0_energy">   -125.63002402 </i>
  </energy>
  <time name="totalsc">   56.08   56.80</time>
 </calculation>
 <calculation>
  <scstep>
   <time name="dav">    1.51    1.53</time>
   <time name="total">    1.65    1.67</time>
   <energy>
    <i name="alphaZ">     60.59237790 </i>
    <i name="ewald">   1898.84799872 </i>
    <i name="hartreedc">  -3509.74211886 </i>
    <i name="XCdc">    168.40327937 </i>
    <i name="pawpsdc">   5835.57955158 </i>
    <i name="pawaedc">  -5834.96721738 </i>
    <i name="eentropy">     -0.00605494 </i>
    <i name="bandstr">   -489.35679525 </i>
    <i name="atom">   1746.50554237 </i>
    <i name="e_fr_energy">   -124.14343651 </i>
    <i name="e_wo_entrp">   -124.13738156 </i>
    <i name="e_0_energy">   -124.14040903 </i>
   </energy>
  </scstep>
  <scstep>
   <time name="dav">    2.33    2.35</time>
   <time name="total">    2.46    2.50</time>
   <energy>
    <i name="e_fr_energy">   -124.13958345 </i>
    <i name="e_wo_entrp">   -124.13349744 </i>
    <i name="e_0_energy">   -124.13654044 </i>
   </energy>
  </scstep>
  <scstep>
   <time name="dav">    2.08    2.10</time>
   <time name="total">    2.21    2.24</time>
   <energy>
    <i name="e_fr_energy">   -124.13897685 </i>
    <i name="e_wo_entrp">   -124.13292375 </i>
    <i name="e_0_energy">   -124.13595030 </i>
   </energy>
  </scstep>
  <scstep>
   <time name="dav">    2.15    2.17</time>
   <time name="total">    2.27    2.30</time>
   <energy>
    <i name="e_fr_energy">   -124.13895450 </i>
    <i name="e_wo_entrp">   -124.13291270 </i>
    <i name="e_0_energy">   -124.13593360 </i>
   </energy>
  </scstep>
  <scstep>
   <time name="dav">    2.26    2.28</time>
   <time name="total">    2.39    2.41</time>
   <energy>
    <i name="e_fr_energy">   -124.13895403 </i>
    <i name="e_wo_entrp">   -124.13290968 </i>
    <i name="e_0_energy">   -124.13593185 </i>
   </energy>
  </scstep>
  <scstep>
   <time name="dav">    1.63    1.64</time>
   <time name="total">    1.75    1.77</time>
   <energy>
    <i name="e_fr_energy">   -124.13895531 </i>
    <i name="e_wo_entrp">   -124.13291082 </i>
    <i name="e_0_energy">   -124.13593307 </i>
   </energy>
  </scstep>
  <scstep>
   <time name="dav">    1.84    1.85</time>
   <time name="total">    1.97    2.00</time>
   <energy>
    <i name="e_fr_energy">   -124.13895681 </i>
    <i name="e_wo_entrp">   -124.13291299 </i>
    <i name="e_0_energy">   -124.13593490 </i>
   </energy>
  </scstep>
  <scstep>
   <time name="dav">    1.66    1.67</time>
   <time name="total">    1.79    1.80</time>
   <energy>
    <i name="e_fr_energy">   -124.13895913 </i>
    <i name="e_wo_entrp">   -124.13291616 </i>
    <i name="e_0_energy">   -124.13593765 </i>
   </energy>
  </scstep>
  <scstep>
   <time name="dav">    1.76    1.77</time>
   <time name="total">    1.88    1.90</time>
   <energy>
    <i name="e_fr_energy">   -124.13896114 </i>
    <i name="e_wo_entrp">   -124.13291819 </i>
    <i name="e_0_energy">   -124.13593967 </i>
   </energy>
  </scstep>
  <scstep>
   <time name="dav">    1.69    1.70</time>
   <time name="total">    1.73    1.74</time>
   <energy>
    <i name="alphaZ">     60.59237790 </i>
    <i name="ewald">   1898.84799872 </i>
    <i name="hartreedc">  -3509.06877712 </i>
    <i name="XCdc">    168.39044432 </i>
    <i name="pawpsdc">   5817.48537810 </i>
    <i name="pawaedc">  -5816.86749855 </i>
    <i name="eentropy">     -0.00604293 </i>
    <i name="bandstr">   -490.01838476 </i>
    <i name="atom">   1746.50554237 </i>
    <i name="e_fr_energy">   -124.13896197 </i>
    <i name="e_wo_entrp">   -124.13291904 </i>
    <i name="e_0_energy">   -124.13594050 </i>
   </energy>
  </scstep>
  <structure>
   <crystal>
    <varray name="basis" >
     <v>       4.30761036       2.48700000       0.00000000 </v>
     <v>      -4.30761036       2.48700000       0.00000000 </v>
     <v>       0.00000000       0.00000000      15.00000000 </v>
    </varray>
    <i name="volume">    321.39080884 </i>
    <varray name="rec_basis" >
     <v>       0.11607364       0.20104544       0.00000000 </v>
     <v>      -0.11607364       0.20104544       0.00000000 </v>
     <v>       0.00000000       0.00000000       0.06666667 </v>
    </varray>
   </crystal>
   <varray name="positions" >
    <v>       0.67071067       0.00000003       0.10002700 </v>
    <v>       0.32928836       0.00000003       0.10002700 </v>
    <v>      -0.00000003       0.32928833       0.10002700 </v>
    <v>      -0.00000003       0.67071064       0.10002700 </v>
    <v>       0.32928836       0.32928833       0.10002700 </v>
    <v>       0.67071067       0.67071064       0.10002700 </v>
    <v>       0.66666600       0.33333300       0.09924376 </v>
    <v>       0.33333300       0.66666600       0.10081621 </v>
    <v>       0.16666367       0.33332834       0.46770557 </v>
    <v>       0.33332846       0.16666373       0.46770559 </v>
    <v>       0.16666367       0.83333533       0.46770557 </v>
    <v>       0.33333300       0.66666600       0.46770555 </v>
    <v>       0.66666600       0.33333300       0.46770564 </v>
    <v>       0.83333527       0.16666373       0.46770559 </v>
    <v>       0.66667066       0.83333533       0.46770557 </v>
    <v>       0.83333527       0.66667054       0.46770559 </v>
   </varray>
  </structure>
  <varray name="forces" >
   <v>      -0.15674446      -0.09050632       0.00847487 </v>
   <v>       0.15675300       0.09049152       0.00847487 </v>
   <v>      -0.15674446       0.09050632       0.00847487 </v>
   <v>       0.15675300      -0.09049152       0.00847487 </v>
   <v>      -0.00000854       0.18099784       0.00847487 </v>
   <v>      -0.00000854      -0.18099784       0.00847487 </v>
   <v>      -0.00000000      -0.00000000       0.00881230 </v>
   <v>      -0.00000000      -0.00000000       0.00937347 </v>
   <v>      -0.00053852       0.00093275      -0.00863449 </v>
   <v>       0.00052380       0.00090725      -0.00862909 </v>
   <v>       0.00107704      -0.00000000      -0.00863449 </v>
   <v>      -0.00000000      -0.00000000      -0.00862838 </v>
   <v>       0.00000000      -0.00000000      -0.00861585 </v>
   <v>      -0.00104760      -0.00000000      -0.00862909 </v>
   <v>      -0.00053852      -0.00093275      -0.00863449 </v>
   <v>       0.00052380      -0.00090725      -0.00862909 </v>
  </varray>
  <varray name="stress" >
   <v>       6.19490327       0.00000000       0.00000000 </v>
   <v>       0.00000000       6.19490327       0.00000000 </v>
   <v>       0.00000000       0.00000000      -3.67447713 </v>
  </varray>
  <energy>
   <i name="e_fr_energy">   -125.63325383 </i>
   <i name="e_wo_entrp">   -125.62721089 </i>
   <i name="e_0_energy">   -125.63023236 </i>
  </energy>
  <time name="totalsc">   21.55   21.81</time>
 </calculation>
 <calculation>
  <scstep>
   <time name="dav">    1.48    1.49</time>
   <time name="total">    1.61    1.63</time>
   <energy>
    <i name="alphaZ">     60.59237790 </i>
    <i name="ewald">   1899.35805978 </i>
    <i name="hartreedc">  -3509.20574001 </i>
    <i name="XCdc">    168.40870010 </i>
    <i name="pawpsdc">   5817.47608573 </i>
    <i name="pawaedc">  -5816.85820873 </i>
    <i name="eentropy">     -0.00593959 </i>
    <i name="bandstr">   -490.41344071 </i>
    <i name="atom">   1746.50554237 </i>
    <i name="e_fr_energy">   -124.14256316 </i>
    <i name="e_wo_entrp">   -124.13662357 </i>
    <i name="e_0_energy">   -124.13959336 </i>
   </energy>
  </scstep>
  <scstep>
   <time name="dav">    2.35    2.37</time>
   <time name="total">    2.47    2.50</time>
   <energy>
    <i name="e_fr_energy">   -124.14164795 </i>
    <i name="e_wo_entrp">   -124.13565222 </i>
    <i name="e_0_energy">   -124.13865008 </i>
   </energy>
  </scstep>
  <scstep>
   <time name="dav">    2.52    2.54</time>
   <time name="total">    2.66    2.68</time>
   <energy>
    <i name="e_fr_energy">   -124.14150267 </i>
    <i name="e_wo_entrp">   -124.13547188 </i>
    <i name="e_0_energy">   -124.13848727 </i>
   </energy>
  </scstep>
  <scstep>
   <time name="dav">    2.24    2.26</time>
   <time name="total">    2.37    2.39</time>
   <energy>
    <i name="e_fr_energy">   -124.14149764 </i>
    <i name="e_wo_entrp">   -124.13546389 </i>
    <i name="e_0_energy">   -124.13848077 </i>
   </energy>
  </scstep>
  <scstep>
   <time name="dav">    2.39    2.41</time>
   <time name="total">    2.42    2.44</time>
   <energy>
    <i name="alphaZ">     60.59237790 </i>
    <i name="ewald">   1899.35805978 </i>
    <i name="hartreedc">  -3509.51935443 </i>
    <i name="XCdc">    168.41480538 </i>
    <i name="pawpsdc">   5826.13238753 </i>
    <i name="pawaedc">  -5825.51711624 </i>
    <i name="eentropy">     -0.00603346 </i>
    <i name="bandstr">   -490.10216653 </i>
    <i name="atom">   1746.50554237 </i>
    <i name="e_fr_energy">   -124.14149770 </i>
    <i name="e_wo_entrp">   -124.13546424 </i>
    <i name="e_0_energy">   -124.13848097 </i>
   </energy>
  </scstep>
  <structure>
   <crystal>
    <varray name="basis" >
     <v>       4.30761036       2.48700000       0.00000000 </v>
     <v>      -4.30761036       2.48700000       0.00000000 </v>
     <v>       0.00000000       0.00000000      15.00000000 </v>
    </varray>
    <i name="volume">    321.39080884 </i>
    <varray name="rec_basis" >
     <v>       0.11607364       0.20104544       0.00000000 </v>
     <v>      -0.11607364       0.20104544       0.00000000 </v>
     <v>       0.00000000       0.00000000       0.06666667 </v>
    </varray>
   </crystal>
   <varray name="positions" >
    <v>       0.66981486       0.00000002       0.10001374 </v>
    <v>       0.33018416       0.00000002       0.10001374 </v>
    <v>      -0.00000002       0.33018414       0.10001374 </v>
    <v>      -0.00000002       0.66981484       0.10001374 </v>
    <v>       0.33018416       0.33018414       0.10001374 </v>
    <v>       0.66981486       0.66981484       0.10001374 </v>
    <v>       0.66666600       0.33333300       0.09923302 </v>
    <v>       0.33333300       0.66666600       0.10079750 </v>
    <v>       0.16666481       0.33333063       0.46771921 </v>
    <v>       0.33333069       0.16666485       0.46771922 </v>
    <v>       0.16666481       0.83333419       0.46771921 </v>
    <v>       0.33333300       0.66666600       0.46771920 </v>
    <v>       0.66666600       0.33333300       0.46771924 </v>
    <v>       0.83333415       0.16666485       0.46771922 </v>
    <v>       0.66666837       0.83333419       0.46771921 </v>
    <v>       0.83333415       0.66666831       0.46771922 </v>
   </varray>
  </structure>
  <varray name="forces" >
   <v>       0.00008585       0.00004526       0.00843919 </v>
   <v>      -0.00008213      -0.00005172       0.00843919 </v>
   <v>       0.00008585      -0.00004526       0.00843919 </v>
   <v>      -0.00008213       0.00005172       0.00843919 </v>
   <v>      -0.00000372      -0.00009698       0.00843919 </v>
   <v>      -0.00000372       0.00009698       0.00843919 </v>
   <v>      -0.00000000      -0.00000000       0.00781625 </v>
   <v>      -0.00000000      -0.00000000       0.01055617 </v>
   <v>      -0.00017057       0.00029544      -0.00863075 </v>
   <v>       0.00016577       0.00028712      -0.00862463 </v>
   <v>       0.00034114       0.00000000      -0.00863075 </v>
   <v>      -0.00000000       0.00000000      -0.00863049 </v>
   <v>       0.00000000      -0.00000000      -0.00861092 </v>
   <v>      -0.00033153      -0.00000000      -0.00862463 </v>
   <v>      -0.00017057      -0.00029544      -0.00863075 </v>
   <v>       0.00016577      -0.00028712      -0.00862463 </v>
  </varray>
  <varray name="stress" >
   <v>       6.91169068       0.00000000       0.00000000 </v>
   <v>       0.00000000       6.91169068       0.00000000 </v>
   <v>      -0.00000000       0.00000000      -3.66501511 </v>
  </varray>
  <energy>
   <i name="e_fr_energy">   -125.63566346 </i>
   <i name="e_wo_entrp">   -125.62963000 </i>
   <i name="e_0_energy">   -125.63264673 </i>
  </energy>
  <time name="totalsc">   12.98   13.11</time>
 </calculation>
 <calculation>
  <scstep>
   <time name="dav">    1.83    1.84</time>
   <time name="total">    1.95    1.97</time>
   <energy>
    <i name="alphaZ">     60.59237790 </i>
    <i name="ewald">   1899.35470905 </i>
    <i name="hartreedc">  -3509.52049359 </i>
    <i name="XCdc">    168.41460766 </i>
    <i name="pawpsdc">   5826.19758641 </i>
    <i name="pawaedc">  -5825.58231120 </i>
    <i name="eentropy">     -0.00603365 </i>
    <i name="bandstr">   -490.09748190 </i>
    <i name="atom">   1746.50554237 </i>
    <i name="e_fr_energy">   -124.14149696 </i>
    <i name="e_wo_entrp">   -124.13546331 </i>
    <i name="e_0_energy">   -124.13848014 </i>
   </energy>
  </scstep>
  <scstep>
   <time name="dav">    1.89    1.91</time>
   <time name="total">    1.93    1.94</time>
   <energy>
    <i name="alphaZ">     60.59237790 </i>
    <i name="ewald">   1899.35470905 </i>
    <i name="hartreedc">  -3509.52180208 </i>
    <i name="XCdc">    168.41462034 </i>
    <i name="pawpsdc">   5826.16109984 </i>
    <i name="pawaedc">  -5825.54582086 </i>
    <i name="eentropy">     -0.00603377 </i>
    <i name="bandstr">   -490.09618983 </i>
    <i name="atom">   1746.50554237 </i>
    <i name="e_fr_energy">   -124.14149705 </i>
    <i name="e_wo_entrp">   -124.13546327 </i>
    <i name="e_0_energy">   -124.13848016 </i>
   </energy>
  </scstep>
  <structure>
   <crystal>
    <varray name="basis" >
     <v>       4.30761036       2.48700000       0.00000000 </v>
     <v>      -4.30761036       2.48700000       0.00000000 </v>
     <v>       0.00000000       0.00000000      15.00000000 </v>
    </varray>
    <i name="volume">    321.39080884 </i>
    <varray name="rec_basis" >
     <v>       0.11607364       0.20104544       0.00000000 </v>
     <v>      -0.11607364       0.20104544       0.00000000 </v>
     <v>       0.00000000       0.00000000       0.06666667 </v>
    </varray>
   </crystal>
   <varray name="positions" >
    <v>       0.66982059       0.00000002       0.10001383 </v>
    <v>       0.33017842       0.00000002       0.10001383 </v>
    <v>      -0.00000002       0.33017841       0.10001383 </v>
    <v>      -0.00000002       0.66982058       0.10001383 </v>
    <v>       0.33017842       0.33017841       0.10001383 </v>
    <v>       0.66982059       0.66982058       0.10001383 </v>
    <v>       0.66666600       0.33333300       0.09923308 </v>
    <v>       0.33333300       0.66666600       0.10079762 </v>
    <v>       0.16666481       0.33333061       0.46771912 </v>
    <v>       0.33333068       0.16666484       0.46771913 </v>
    <v>       0.16666481       0.83333419       0.46771912 </v>
    <v>       0.33333300       0.66666600       0.46771911 </v>
    <v>       0.66666600       0.33333300       0.46771916 </v>
    <v>       0.83333416       0.16666484       0.46771913 </v>
    <v>       0.66666839       0.83333419       0.46771912 </v>
    <v>       0.83333416       0.66666832       0.46771913 </v>
   </varray>
  </structure>
  <varray name="forces" >
   <v>      -0.00156916      -0.00090926       0.00843210 </v>
   <v>       0.00157202       0.00090430       0.00843210 </v>
   <v>      -0.00156916       0.00090926       0.00843210 </v>
   <v>       0.00157202      -0.00090430       0.00843210 </v>
   <v>      -0.00000287       0.00181356       0.00843210 </v>
   <v>      -0.00000287      -0.00181356       0.00843210 </v>
   <v>       0.00000000       0.00000000       0.00782830 </v>
   <v>      -0.00000000       0.00000000       0.01053998 </v>
   <v>      -0.00017411       0.00030157      -0.00862520 </v>
   <v>       0.00016920       0.00029306      -0.00861912 </v>
   <v>       0.00034822       0.00000000      -0.00862520 </v>
   <v>      -0.00000000       0.00000000      -0.00862363 </v>
   <v>      -0.00000000       0.00000000      -0.00860428 </v>
   <v>      -0.00033839       0.00000000      -0.00861912 </v>
   <v>      -0.00017411      -0.00030157      -0.00862520 </v>
   <v>       0.00016920      -0.00029306      -0.00861912 </v>
  </varray>
  <varray name="stress" >
   <v>       6.91152206       0.00000000       0.00000000 </v>
   <v>       0.00000000       6.91152206       0.00000000 </v>
   <v>       0.00000000       0.00000000      -3.66703977 </v>
  </varray>
  <energy>
   <i name="e_fr_energy">   -125.63566362 </i>
   <i name="e_wo_entrp">   -125.62962985 </i>
   <i name="e_0_energy">   -125.63264674 </i>
  </energy>
  <time name="totalsc">    5.33    5.39</time>
 </calculation>
 <calculation>
  <scstep>
   <time name="dav">    1.74    1.75</time>
   <time name="total">    1.86    1.88</time>
   <energy>
    <i name="alphaZ">     60.59237790 </i>
    <i name="ewald">   1899.35602821 </i>
    <i name="hartreedc">  -3509.52402364 </i>
    <i name="XCdc">    168.41469108 </i>
    <i name="pawpsdc">   5826.13426696 </i>
    <i name="pawaedc">  -5825.51898458 </i>
    <i name="eentropy">     -0.00603358 </i>
    <i name="bandstr">   -490.09536230 </i>
    <i name="atom">   1746.50554237 </i>
    <i name="e_fr_energy">   -124.14149757 </i>
    <i name="e_wo_entrp">   -124.13546400 </i>
    <i name="e_0_energy">   -124.13848078 </i>
   </energy>
  </scstep>
  <scstep>
   <time name="dav">    1.94    1.95</time>
   <time name="total">    1.97    1.98</time>
   <energy>
    <i name="alphaZ">     60.59237790 </i>
    <i name="ewald">   1899.35602821 </i>
    <i name="hartreedc">  -3509.52577854 </i>
    <i name="XCdc">    168.41472044 </i>
    <i name="pawpsdc">   5826.13525612 </i>
    <i name="pawaedc">  -5825.51997607 </i>
    <i name="eentropy">     -0.00603372 </i>
    <i name="bandstr">   -490.09363437 </i>
    <i name="atom">   1746.50554237 </i>
    <i name="e_fr_energy">   -124.14149766 </i>
    <i name="e_wo_entrp">   -124.13546394 </i>
    <i name="e_0_energy">   -124.13848080 </i>
   </energy>
  </scstep>
  <structure>
   <crystal>
    <varray name="basis" >
     <v>       4.30761036       2.48700000       0.00000000 </v>
     <v>      -4.30761036       2.48700000       0.00000000 </v>
     <v>       0.00000000       0.00000000      15.00000000 </v>
    </varray>
    <i name="volume">    321.39080884 </i>
    <varray name="rec_basis" >
     <v>       0.11607364       0.20104544       0.00000000 </v>
     <v>      -0.11607364       0.20104544       0.00000000 </v>
     <v>       0.00000000       0.00000000       0.06666667 </v>
    </varray>
   </crystal>
   <varray name="positions" >
    <v>       0.66981834       0.00000002       0.10001379 </v>
    <v>       0.33018068       0.00000002       0.10001379 </v>
    <v>      -0.00000002       0.33018066       0.10001379 </v>
    <v>      -0.00000002       0.66981832       0.10001379 </v>
    <v>       0.33018068       0.33018066       0.10001379 </v>
    <v>       0.66981834       0.66981832       0.10001379 </v>
    <v>       0.66666600       0.33333300       0.09923306 </v>
    <v>       0.33333300       0.66666600       0.10079757 </v>
    <v>       0.16666481       0.33333062       0.46771915 </v>
    <v>       0.33333068       0.16666484       0.46771916 </v>
    <v>       0.16666481       0.83333419       0.46771915 </v>
    <v>       0.33333300       0.66666600       0.46771915 </v>
    <v>       0.66666600       0.33333300       0.46771919 </v>
    <v>       0.83333416       0.16666484       0.46771916 </v>
    <v>       0.66666838       0.83333419       0.46771915 </v>
    <v>       0.83333416       0.66666832       0.46771916 </v>
   </varray>
  </structure>
  <varray name="forces" >
   <v>      -0.00142143      -0.00082402       0.00843018 </v>
   <v>       0.00142434       0.00081898       0.00843018 </v>
   <v>      -0.00142143       0.00082402       0.00843018 </v>
   <v>       0.00142434      -0.00081898       0.00843018 </v>
   <v>      -0.00000291       0.00164301       0.00843018 </v>
   <v>      -0.00000291      -0.00164301       0.00843018 </v>
   <v>      -0.00000000       0.00000000       0.00783417 </v>
   <v>       0.00000000       0.00000000       0.01054488 </v>
   <v>      -0.00017315       0.00029990      -0.00862501 </v>
   <v>       0.00016825       0.00029141      -0.00861894 </v>
   <v>       0.00034629       0.00000000      -0.00862501 </v>
   <v>      -0.00000000       0.00000000      -0.00862383 </v>
   <v>       0.00000000       0.00000000      -0.00860447 </v>
   <v>      -0.00033650       0.00000000      -0.00861894 </v>
   <v>      -0.00017315      -0.00029990      -0.00862501 </v>
   <v>       0.00016825      -0.00029141      -0.00861894 </v>
  </varray>
  <varray name="stress" >
   <v>       6.91353865       0.00000000       0.00000000 </v>
   <v>       0.00000000       6.91353865       0.00000000 </v>
   <v>      -0.00000000       0.00000000      -3.66591287 </v>
  </varray>
  <energy>
   <i name="e_fr_energy">   -125.63566392 </i>
   <i name="e_wo_entrp">   -125.62963020 </i>
   <i name="e_0_energy">   -125.63264706 </i>
  </energy>
  <time name="totalsc">    5.30    5.36</time>
 </calculation>
 <calculation>
  <scstep>
   <time name="dav">    1.77    1.78</time>
   <time name="total">    1.91    1.94</time>
   <energy>
    <i name="alphaZ">     60.59237790 </i>
    <i name="ewald">   1899.35704395 </i>
    <i name="hartreedc">  -3509.52761685 </i>
    <i name="XCdc">    168.41477838 </i>
    <i name="pawpsdc">   5826.13361079 </i>
    <i name="pawaedc">  -5825.51833185 </i>
    <i name="eentropy">     -0.00603367 </i>
    <i name="bandstr">   -490.09286904 </i>
    <i name="atom">   1746.50554237 </i>
    <i name="e_fr_energy">   -124.14149802 </i>
    <i name="e_wo_entrp">   -124.13546435 </i>
    <i name="e_0_energy">   -124.13848118 </i>
   </energy>
  </scstep>
  <scstep>
   <time name="dav">    2.03    2.05</time>
   <time name="total">    2.06    2.08</time>
   <energy>
    <i name="alphaZ">     60.59237790 </i>
    <i name="ewald">   1899.35704395 </i>
    <i name="hartreedc">  -3509.52892368 </i>
    <i name="XCdc">    168.41479876 </i>
    <i name="pawpsdc">   5826.14053019 </i>
    <i name="pawaedc">  -5825.52525381 </i>
    <i name="eentropy">     -0.00603380 </i>
    <i name="bandstr">   -490.09157994 </i>
    <i name="atom">   1746.50554237 </i>
    <i name="e_fr_energy">   -124.14149807 </i>
    <i name="e_wo_entrp">   -124.13546427 </i>
    <i name="e_0_energy">   -124.13848117 </i>
   </energy>
  </scstep>
  <structure>
   <crystal>
    <varray name="basis" >
     <v>       4.30761036       2.48700000       0.00000000 </v>
     <v>      -4.30761036       2.48700000       0.00000000 </v>
     <v>       0.00000000       0.00000000      15.00000000 </v>
    </varray>
    <i name="volume">    321.39080884 </i>
    <varray name="rec_basis" >
     <v>       0.11607364       0.20104544       0.00000000 </v>
     <v>      -0.11607364       0.20104544       0.00000000 </v>
     <v>       0.00000000       0.00000000       0.06666667 </v>
    </varray>
   </crystal>
   <varray name="positions" >
    <v>       0.66981660       0.00000002       0.10001377 </v>
    <v>       0.33018242       0.00000002       0.10001377 </v>
    <v>      -0.00000002       0.33018240       0.10001377 </v>
    <v>      -0.00000002       0.66981658       0.10001377 </v>
    <v>       0.33018242       0.33018240       0.10001377 </v>
    <v>       0.66981660       0.66981658       0.10001377 </v>
    <v>       0.66666600       0.33333300       0.09923304 </v>
    <v>       0.33333300       0.66666600       0.10079753 </v>
    <v>       0.16666481       0.33333062       0.46771918 </v>
    <v>       0.33333069       0.16666484       0.46771919 </v>
    <v>       0.16666481       0.83333419       0.46771918 </v>
    <v>       0.33333300       0.66666600       0.46771917 </v>
    <v>       0.66666600       0.33333300       0.46771922 </v>
    <v>       0.83333416       0.16666484       0.46771919 </v>
    <v>       0.66666838       0.83333419       0.46771918 </v>
    <v>       0.83333416       0.66666831       0.46771919 </v>
   </varray>
  </structure>
  <varray name="forces" >
   <v>      -0.00111664      -0.00064809       0.00843061 </v>
   <v>       0.00111958       0.00064300       0.00843061 </v>
   <v>      -0.00111664       0.00064809       0.00843061 </v>
   <v>       0.00111958      -0.00064300       0.00843061 </v>
   <v>      -0.00000294       0.00129108       0.00843061 </v>
   <v>      -0.00000294      -0.00129108       0.00843061 </v>
   <v>       0.00000000      -0.00000000       0.00783560 </v>
   <v>       0.00000000      -0.00000000       0.01055105 </v>
   <v>      -0.00017243       0.00029866      -0.00862626 </v>
   <v>       0.00016755       0.00029021      -0.00862019 </v>
   <v>       0.00034487      -0.00000000      -0.00862626 </v>
   <v>       0.00000000      -0.00000000      -0.00862515 </v>
   <v>       0.00000000       0.00000000      -0.00860581 </v>
   <v>      -0.00033510      -0.00000000      -0.00862019 </v>
   <v>      -0.00017243      -0.00029866      -0.00862626 </v>
   <v>       0.00016755      -0.00029021      -0.00862019 </v>
  </varray>
  <varray name="stress" >
   <v>       6.91505697       0.00000000       0.00000000 </v>
   <v>       0.00000000       6.91505697       0.00000000 </v>
   <v>       0.00000000       0.00000000      -3.66772087 </v>
  </varray>
  <energy>
   <i name="e_fr_energy">   -125.63566408 </i>
   <i name="e_wo_entrp">   -125.62963028 </i>
   <i name="e_0_energy">   -125.63264718 </i>
  </energy>
  <time name="totalsc">    5.42    5.48</time>
 </calculation>
 <calculation>
  <scstep>
   <time name="dav">    1.78    1.79</time>
   <time name="total">    1.90    1.92</time>
   <energy>
    <i name="alphaZ">     60.59237790 </i>
    <i name="ewald">   1899.35754169 </i>
    <i name="hartreedc">  -3509.53045340 </i>
    <i name="XCdc">    168.41483414 </i>
    <i name="pawpsdc">   5826.14514743 </i>
    <i name="pawaedc">  -5825.52987256 </i>
    <i name="eentropy">     -0.00603382 </i>
    <i name="bandstr">   -490.09058201 </i>
    <i name="atom">   1746.50554237 </i>
    <i name="e_fr_energy">   -124.14149825 </i>
    <i name="e_wo_entrp">   -124.13546444 </i>
    <i name="e_0_energy">   -124.13848134 </i>
   </energy>
  </scstep>
  <scstep>
   <time name="dav">    2.18    2.19</time>
   <time name="total">    2.21    2.22</time>
   <energy>
    <i name="alphaZ">     60.59237790 </i>
    <i name="ewald">   1899.35754169 </i>
    <i name="hartreedc">  -3509.53124761 </i>
    <i name="XCdc">    168.41484476 </i>
    <i name="pawpsdc">   5826.14990536 </i>
    <i name="pawaedc">  -5825.53463169 </i>
    <i name="eentropy">     -0.00603388 </i>
    <i name="bandstr">   -490.08979719 </i>
    <i name="atom">   1746.50554237 </i>
    <i name="e_fr_energy">   -124.14149828 </i>
    <i name="e_wo_entrp">   -124.13546440 </i>
    <i name="e_0_energy">   -124.13848134 </i>
   </energy>
  </scstep>
  <structure>
   <crystal>
    <varray name="basis" >
     <v>       4.30761036       2.48700000       0.00000000 </v>
     <v>      -4.30761036       2.48700000       0.00000000 </v>
     <v>       0.00000000       0.00000000      15.00000000 </v>
    </varray>
    <i name="volume">    321.39080884 </i>
    <varray name="rec_basis" >
     <v>       0.11607364       0.20104544       0.00000000 </v>
     <v>      -0.11607364       0.20104544       0.00000000 </v>
     <v>       0.00000000       0.00000000       0.06666667 </v>
    </varray>
   </crystal>
   <varray name="positions" >
    <v>       0.66981575       0.00000002       0.10001375 </v>
    <v>       0.33018327       0.00000002       0.10001375 </v>
    <v>      -0.00000002       0.33018325       0.10001375 </v>
    <v>      -0.00000002       0.66981573       0.10001375 </v>
    <v>       0.33018327       0.33018325       0.10001375 </v>
    <v>       0.66981575       0.66981573       0.10001375 </v>
    <v>       0.66666600       0.33333300       0.09923303 </v>
    <v>       0.33333300       0.66666600       0.10079752 </v>
    <v>       0.16666481       0.33333063       0.46771919 </v>
    <v>       0.33333069       0.16666484       0.46771920 </v>
    <v>       0.16666481       0.83333419       0.46771919 </v>
    <v>       0.33333300       0.66666600       0.46771919 </v>
    <v>       0.66666600       0.33333300       0.46771923 </v>
    <v>       0.83333416       0.16666484       0.46771920 </v>
    <v>       0.66666837       0.83333419       0.46771919 </v>
    <v>       0.83333416       0.66666831       0.46771920 </v>
   </varray>
  </structure>
  <varray name="forces" >
   <v>      -0.00093653      -0.00054412       0.00843180 </v>
   <v>       0.00093949       0.00053899       0.00843180 </v>
   <v>      -0.00093653       0.00054412       0.00843180 </v>
   <v>       0.00093949      -0.00053899       0.00843180 </v>
   <v>      -0.00000296       0.00108312       0.00843180 </v>
   <v>      -0.00000296      -0.00108312       0.00843180 </v>
   <v>       0.00000000      -0.00000000       0.00783673 </v>
   <v>      -0.00000000      -0.00000000       0.01055483 </v>
   <v>      -0.00017208       0.00029805      -0.00862776 </v>
   <v>       0.00016721       0.00028961      -0.00862169 </v>
   <v>       0.00034416      -0.00000000      -0.00862776 </v>
   <v>       0.00000000      -0.00000000      -0.00862668 </v>
   <v>      -0.00000000       0.00000000      -0.00860736 </v>
   <v>      -0.00033441       0.00000000      -0.00862169 </v>
   <v>      -0.00017208      -0.00029805      -0.00862776 </v>
   <v>       0.00016721      -0.00028961      -0.00862169 </v>
  </varray>
  <varray name="stress" >
   <v>       6.91586639       0.00000000       0.00000000 </v>
   <v>       0.00000000       6.91586639       0.00000000 </v>
   <v>      -0.00000000       0.00000000      -3.66956767 </v>
  </varray>
  <energy>
   <i name="e_fr_energy">   -125.63566417 </i>
   <i name="e_wo_entrp">   -125.62963029 </i>
   <i name="e_0_energy">   -125.63264723 </i>
  </energy>
  <time name="totalsc">    5.56    5.61</time>
 </calculation>
 <calculation>
  <scstep>
   <time name="dav">    1.48    1.49</time>
   <time name="total">    1.60    1.63</time>
   <energy>
    <i name="alphaZ">     60.59237790 </i>
    <i name="ewald">   1900.00493890 </i>
    <i name="hartreedc">  -3510.17949500 </i>
    <i name="XCdc">    168.41485355 </i>
    <i name="pawpsdc">   5826.15313710 </i>
    <i name="pawaedc">  -5825.53786405 </i>
    <i name="eentropy">     -0.00603395 </i>
    <i name="bandstr">   -490.08896422 </i>
    <i name="atom">   1746.50554237 </i>
    <i name="e_fr_energy">   -124.14150741 </i>
    <i name="e_wo_entrp">   -124.13547346 </i>
    <i name="e_0_energy">   -124.13849043 </i>
   </energy>
  </scstep>
  <scstep>
   <time name="dav">    1.58    1.59</time>
   <time name="total">    1.71    1.73</time>
   <energy>
    <i name="e_fr_energy">   -124.14150625 </i>
    <i name="e_wo_entrp">   -124.13547202 </i>
    <i name="e_0_energy">   -124.13848913 </i>
   </energy>
  </scstep>
  <scstep>
   <time name="dav">    1.78    1.80</time>
   <time name="total">    1.82    1.83</time>
   <energy>
    <i name="alphaZ">     60.59237790 </i>
    <i name="ewald">   1900.00493890 </i>
    <i name="hartreedc">  -3510.18874244 </i>
    <i name="XCdc">    168.41488097 </i>
    <i name="pawpsdc">   5826.14641454 </i>
    <i name="pawaedc">  -5825.53113928 </i>
    <i name="eentropy">     -0.00603404 </i>
    <i name="bandstr">   -490.07974454 </i>
    <i name="atom">   1746.50554237 </i>
    <i name="e_fr_energy">   -124.14150563 </i>
    <i name="e_wo_entrp">   -124.13547159 </i>
    <i name="e_0_energy">   -124.13848861 </i>
   </energy>
  </scstep>
  <structure>
   <crystal>
    <varray name="basis" >
     <v>       4.30761036       2.48700000       0.00000000 </v>
     <v>      -4.30761036       2.48700000       0.00000000 </v>
     <v>       0.00000000       0.00000000      15.00000000 </v>
    </varray>
    <i name="volume">    321.39080884 </i>
    <varray name="rec_basis" >
     <v>       0.11607364       0.20104544       0.00000000 </v>
     <v>      -0.11607364       0.20104544       0.00000000 </v>
     <v>       0.00000000       0.00000000       0.06666667 </v>
    </varray>
   </crystal>
   <varray name="positions" >
    <v>       0.66981571      -0.00000001       0.10003835 </v>
    <v>       0.33018327      -0.00000001       0.10003835 </v>
    <v>       0.00000001       0.33018329       0.10003835 </v>
    <v>       0.00000001       0.66981573       0.10003835 </v>
    <v>       0.33018327       0.33018329       0.10003835 </v>
    <v>       0.66981571       0.66981573       0.10003835 </v>
    <v>       0.66666600       0.33333300       0.09925587 </v>
    <v>       0.33333300       0.66666600       0.10082833 </v>
    <v>       0.16666654       0.33333408       0.46769402 </v>
    <v>       0.33333404       0.16666652       0.46769405 </v>
    <v>       0.16666654       0.83333246       0.46769402 </v>
    <v>       0.33333300       0.66666600       0.46769402 </v>
    <v>       0.66666600       0.33333300       0.46769412 </v>
    <v>       0.83333248       0.16666652       0.46769405 </v>
    <v>       0.66666492       0.83333246       0.46769402 </v>
    <v>       0.83333248       0.66666496       0.46769405 </v>
   </varray>
  </structure>
  <varray name="forces" >
   <v>      -0.00090770      -0.00052446       0.00813929 </v>
   <v>       0.00090804       0.00052386       0.00813929 </v>
   <v>      -0.00090770       0.00052446       0.00813929 </v>
   <v>       0.00090804      -0.00052386       0.00813929 </v>
   <v>      -0.00000034       0.00104832       0.00813929 </v>
   <v>      -0.00000034      -0.00104832       0.00813929 </v>
   <v>      -0.00000000      -0.00000000       0.00753592 </v>
   <v>      -0.00000000      -0.00000000       0.01028232 </v>
   <v>       0.00040874      -0.00070796      -0.00833372 </v>
   <v>      -0.00039728      -0.00068811      -0.00832987 </v>
   <v>      -0.00081748       0.00000000      -0.00833372 </v>
   <v>      -0.00000000       0.00000000      -0.00833710 </v>
   <v>      -0.00000000      -0.00000000      -0.00832613 </v>
   <v>       0.00079456      -0.00000000      -0.00832987 </v>
   <v>       0.00040874       0.00070796      -0.00833372 </v>
   <v>      -0.00039728       0.00068811      -0.00832987 </v>
  </varray>
  <varray name="stress" >
   <v>       6.91555423       0.00000000      -0.00000000 </v>
   <v>       0.00000000       6.91555423       0.00000000 </v>
   <v>       0.00000000       0.00000000      -3.67465353 </v>
  </varray>
  <energy>
   <i name="e_fr_energy">   -125.63571853 </i>
   <i name="e_wo_entrp">   -125.62968449 </i>
   <i name="e_0_energy">   -125.63270151 </i>
  </energy>
  <time name="totalsc">    6.58    6.66</time>
 </calculation>
 <calculation>
  <scstep>
   <time name="dav">    1.43    1.45</time>
   <time name="total">    1.56    1.58</time>
   <energy>
    <i name="alphaZ">     60.59237790 </i>
    <i name="ewald">   1901.94860730 </i>
    <i name="hartreedc">  -3512.13031240 </i>
    <i name="XCdc">    168.41487533 </i>
    <i name="pawpsdc">   5826.15053224 </i>
    <i name="pawaedc">  -5825.53525648 </i>
    <i name="eentropy">     -0.00603405 </i>
    <i name="bandstr">   -490.08186892 </i>
    <i name="atom">   1746.50554237 </i>
    <i name="e_fr_energy">   -124.14153670 </i>
    <i name="e_wo_entrp">   -124.13550266 </i>
    <i name="e_0_energy">   -124.13851968 </i>
   </energy>
  </scstep>
  <scstep>
   <time name="dav">    1.53    1.54</time>
   <time name="total">    1.66    1.68</time>
   <energy>
    <i name="e_fr_energy">   -124.14152655 </i>
    <i name="e_wo_entrp">   -124.13549171 </i>
    <i name="e_0_energy">   -124.13850913 </i>
   </energy>
  </scstep>
  <scstep>
   <time name="dav">    2.25    2.26</time>
   <time name="total">    2.37    2.40</time>
   <energy>
    <i name="e_fr_energy">   -124.14152000 </i>
    <i name="e_wo_entrp">   -124.13548575 </i>
    <i name="e_0_energy">   -124.13850288 </i>
   </energy>
  </scstep>
  <scstep>
   <time name="dav">    1.67    1.68</time>
   <time name="total">    1.70    1.72</time>
   <energy>
    <i name="alphaZ">     60.59237790 </i>
    <i name="ewald">   1901.94860730 </i>
    <i name="hartreedc">  -3512.14605615 </i>
    <i name="XCdc">    168.41492179 </i>
    <i name="pawpsdc">   5826.14471454 </i>
    <i name="pawaedc">  -5825.52943199 </i>
    <i name="eentropy">     -0.00603402 </i>
    <i name="bandstr">   -490.06616214 </i>
    <i name="atom">   1746.50554237 </i>
    <i name="e_fr_energy">   -124.14152040 </i>
    <i name="e_wo_entrp">   -124.13548638 </i>
    <i name="e_0_energy">   -124.13850339 </i>
   </energy>
  </scstep>
  <structure>
   <crystal>
    <varray name="basis" >
     <v>       4.30761036       2.48700000       0.00000000 </v>
     <v>      -4.30761036       2.48700000       0.00000000 </v>
     <v>       0.00000000       0.00000000      15.00000000 </v>
    </varray>
    <i name="volume">    321.39080884 </i>
    <varray name="rec_basis" >
     <v>       0.11607364       0.20104544       0.00000000 </v>
     <v>      -0.11607364       0.20104544       0.00000000 </v>
     <v>       0.00000000       0.00000000       0.06666667 </v>
    </varray>
   </crystal>
   <varray name="positions" >
    <v>       0.66981561      -0.00000010       0.10011214 </v>
    <v>       0.33018329      -0.00000010       0.10011214 </v>
    <v>       0.00000010       0.33018339       0.10011214 </v>
    <v>       0.00000010       0.66981571       0.10011214 </v>
    <v>       0.33018329       0.33018339       0.10011214 </v>
    <v>       0.66981561       0.66981571       0.10011214 </v>
    <v>       0.66666600       0.33333300       0.09932440 </v>
    <v>       0.33333300       0.66666600       0.10092077 </v>
    <v>       0.16667172       0.33334443       0.46761852 </v>
    <v>       0.33334411       0.16667155       0.46761860 </v>
    <v>       0.16667172       0.83332728       0.46761852 </v>
    <v>       0.33333300       0.66666600       0.46761852 </v>
    <v>       0.66666600       0.33333300       0.46761879 </v>
    <v>       0.83332745       0.16667155       0.46761860 </v>
    <v>       0.66665457       0.83332728       0.46761852 </v>
    <v>       0.83332745       0.66665489       0.46761860 </v>
   </varray>
  </structure>
  <varray name="forces" >
   <v>      -0.00091375      -0.00052747       0.00849205 </v>
   <v>       0.00091368       0.00052760       0.00849205 </v>
   <v>      -0.00091375       0.00052747       0.00849205 </v>
   <v>       0.00091368      -0.00052760       0.00849205 </v>
   <v>       0.00000007       0.00105507       0.00849205 </v>
   <v>       0.00000007      -0.00105507       0.00849205 </v>
   <v>      -0.00000000      -0.00000000       0.00770157 </v>
   <v>      -0.00000000      -0.00000000       0.01049624 </v>
   <v>       0.00206265      -0.00357262      -0.00863890 </v>
   <v>      -0.00200346      -0.00347009      -0.00864212 </v>
   <v>      -0.00412530      -0.00000000      -0.00863890 </v>
   <v>       0.00000000      -0.00000000      -0.00864590 </v>
   <v>      -0.00000000      -0.00000000      -0.00866117 </v>
   <v>       0.00400691       0.00000000      -0.00864212 </v>
   <v>       0.00206265       0.00357262      -0.00863890 </v>
   <v>      -0.00200346       0.00347009      -0.00864212 </v>
  </varray>
  <varray name="stress" >
   <v>       6.91530137       0.00000000      -0.00000000 </v>
   <v>       0.00000000       6.91530137       0.00000000 </v>
   <v>       0.00000000       0.00000000      -3.67903433 </v>
  </varray>
  <energy>
   <i name="e_fr_energy">   -125.63587454 </i>
   <i name="e_wo_entrp">   -125.62984052 </i>
   <i name="e_0_energy">   -125.63285753 </i>
  </energy>
  <time name="totalsc">    8.74    8.84</time>
 </calculation>
 <calculation>
  <scstep>
   <time name="dav">    1.43    1.44</time>
   <time name="total">    1.56    1.58</time>
   <energy>
    <i name="alphaZ">     60.59237790 </i>
    <i name="ewald">   1905.84255966 </i>
    <i name="hartreedc">  -3516.03334328 </i>
    <i name="XCdc">    168.41491612 </i>
    <i name="pawpsdc">   5826.14738993 </i>
    <i name="pawaedc">  -5825.53211068 </i>
    <i name="eentropy">     -0.00603414 </i>
    <i name="bandstr">   -490.07291066 </i>
    <i name="atom">   1746.50554237 </i>
    <i name="e_fr_energy">   -124.14161278 </i>
    <i name="e_wo_entrp">   -124.13557864 </i>
    <i name="e_0_energy">   -124.13859571 </i>
   </energy>
  </scstep>
  <scstep>
   <time name="dav">    1.52    1.53</time>
   <time name="total">    1.64    1.66</time>
   <energy>
    <i name="e_fr_energy">   -124.14157549 </i>
    <i name="e_wo_entrp">   -124.13553979 </i>
    <i name="e_0_energy">   -124.13855764 </i>
   </energy>
  </scstep>
  <scstep>
   <time name="dav">    2.10    2.11</time>
   <time name="total">    2.22    2.24</time>
   <energy>
    <i name="e_fr_energy">   -124.14154629 </i>
    <i name="e_wo_entrp">   -124.13551173 </i>
    <i name="e_0_energy">   -124.13852901 </i>
   </energy>
  </scstep>
  <scstep>
   <time name="dav">    1.93    1.95</time>
   <time name="total">    2.05    2.08</time>
   <energy>
    <i name="e_fr_energy">   -124.14154759 </i>
    <i name="e_wo_entrp">   -124.13551348 </i>
    <i name="e_0_energy">   -124.13853053 </i>
   </energy>
  </scstep>
  <scstep>
   <time name="dav">    1.49    1.50</time>
   <time name="total">    1.52    1.53</time>
   <energy>
    <i name="alphaZ">     60.59237790 </i>
    <i name="ewald">   1905.84255966 </i>
    <i name="hartreedc">  -3516.05070372 </i>
    <i name="XCdc">    168.41498934 </i>
    <i name="pawpsdc">   5826.14488497 </i>
    <i name="pawaedc">  -5825.52959876 </i>
    <i name="eentropy">     -0.00603402 </i>
    <i name="bandstr">   -490.05556607 </i>
    <i name="atom">   1746.50554237 </i>
    <i name="e_fr_energy">   -124.14154834 </i>
    <i name="e_wo_entrp">   -124.13551431 </i>
    <i name="e_0_energy">   -124.13853132 </i>
   </energy>
  </scstep>
  <structure>
   <crystal>
    <varray name="basis" >
     <v>       4.30761036       2.48700000       0.00000000 </v>
     <v>      -4.30761036       2.48700000       0.00000000 </v>
     <v>       0.00000000       0.00000000      15.00000000 </v>
    </varray>
    <i name="volume">    321.39080884 </i>
    <varray name="rec_basis" >
     <v>       0.11607364       0.20104544       0.00000000 </v>
     <v>      -0.11607364       0.20104544       0.00000000 </v>
     <v>       0.00000000       0.00000000       0.06666667 </v>
    </varray>
   </crystal>
   <varray name="positions" >
    <v>       0.66981541      -0.00000028       0.10025972 </v>
    <v>       0.33018331      -0.00000028       0.10025972 </v>
    <v>       0.00000028       0.33018359       0.10025972 </v>
    <v>       0.00000028       0.66981569       0.10025972 </v>
    <v>       0.33018331       0.33018359       0.10025972 </v>
    <v>       0.66981541       0.66981569       0.10025972 </v>
    <v>       0.66666600       0.33333300       0.09946147 </v>
    <v>       0.33333300       0.66666600       0.10110564 </v>
    <v>       0.16668207       0.33336515       0.46746750 </v>
    <v>       0.33336423       0.16668162       0.46746769 </v>
    <v>       0.16668207       0.83331693       0.46746750 </v>
    <v>       0.33333300       0.66666600       0.46746752 </v>
    <v>       0.66666600       0.33333300       0.46746813 </v>
    <v>       0.83331738       0.16668162       0.46746769 </v>
    <v>       0.66663385       0.83331693       0.46746750 </v>
    <v>       0.83331738       0.66663477       0.46746769 </v>
   </varray>
  </structure>
  <varray name="forces" >
   <v>      -0.00092761      -0.00051646       0.00847567 </v>
   <v>       0.00091107       0.00054510       0.00847567 </v>
   <v>      -0.00092761       0.00051646       0.00847567 </v>
   <v>       0.00091107      -0.00054510       0.00847567 </v>
   <v>       0.00001654       0.00106156       0.00847567 </v>
   <v>       0.00001654      -0.00106156       0.00847567 </v>
   <v>      -0.00000000      -0.00000000       0.00728226 </v>
   <v>      -0.00000000      -0.00000000       0.01011341 </v>
   <v>       0.00540712      -0.00936540      -0.00851008 </v>
   <v>      -0.00525290      -0.00909829      -0.00852746 </v>
   <v>      -0.01081424      -0.00000000      -0.00851008 </v>
   <v>      -0.00000000      -0.00000000      -0.00853474 </v>
   <v>      -0.00000000      -0.00000000      -0.00860233 </v>
   <v>       0.01050580      -0.00000000      -0.00852746 </v>
   <v>       0.00540712       0.00936540      -0.00851008 </v>
   <v>      -0.00525290       0.00909829      -0.00852746 </v>
  </varray>
  <varray name="stress" >
   <v>       6.91413130       0.00000000       0.00000000 </v>
   <v>       0.00000000       6.91413130       0.00000000 </v>
   <v>       0.00000000       0.00000000      -3.69003542 </v>
  </varray>
  <energy>
   <i name="e_fr_energy">   -125.63618578 </i>
   <i name="e_wo_entrp">   -125.63015176 </i>
   <i name="e_0_energy">   -125.63316877 </i>
  </energy>
  <time name="totalsc">   10.45   10.58</time>
 </calculation>
 <calculation>
  <scstep>
   <time name="dav">    1.43    1.44</time>
   <time name="total">    1.56    1.57</time>
   <energy>
    <i name="alphaZ">     60.59237790 </i>
    <i name="ewald">   1913.65693901 </i>
    <i name="hartreedc">  -3523.85741889 </i>
    <i name="XCdc">    168.41494734 </i>
    <i name="pawpsdc">   5826.14255803 </i>
    <i name="pawaedc">  -5825.52727355 </i>
    <i name="eentropy">     -0.00603438 </i>
    <i name="bandstr">   -490.06348031 </i>
    <i name="atom">   1746.50554237 </i>
    <i name="e_fr_energy">   -124.14184249 </i>
    <i name="e_wo_entrp">   -124.13580811 </i>
    <i name="e_0_energy">   -124.13882530 </i>
   </energy>
  </scstep>
  <scstep>
   <time name="dav">    1.62    1.63</time>
   <time name="total">    1.75    1.78</time>
   <energy>
    <i name="e_fr_energy">   -124.14170919 </i>
    <i name="e_wo_entrp">   -124.13567180 </i>
    <i name="e_0_energy">   -124.13869050 </i>
   </energy>
  </scstep>
  <scstep>
   <time name="dav">    1.91    1.92</time>
   <time name="total">    2.03    2.05</time>
   <energy>
[...]
   <v>       0.00077368       0.00134005       0.00268873 </v>
   <v>      -0.01152026       0.01995368      -0.00577726 </v>
  </varray>
  <varray name="stress" >
   <v>       3.22130298       0.00000000       0.00000000 </v>
   <v>       0.00000000       3.22130298       0.00000000 </v>
   <v>       0.00000000      -0.00000000      -1.72327620 </v>
  </varray>
  <energy>
   <i name="e_fr_energy">   -125.92617737 </i>
   <i name="e_wo_entrp">   -125.92306292 </i>
   <i name="e_0_energy">   -125.92462015 </i>
  </energy>
  <time name="totalsc">    9.40    9.51</time>
 </calculation>
 <calculation>
  <scstep>
   <time name="dav">    1.44    1.44</time>
   <time name="total">    1.57    1.59</time>
   <energy>
    <i name="alphaZ">     60.59237790 </i>
    <i name="ewald">   4492.44299737 </i>
    <i name="hartreedc">  -6103.19719393 </i>
    <i name="XCdc">    168.54530064 </i>
    <i name="pawpsdc">   5794.52991638 </i>
    <i name="pawaedc">  -5793.90513023 </i>
    <i name="eentropy">     -0.00312575 </i>
    <i name="bandstr">   -489.56833860 </i>
    <i name="atom">   1746.50554237 </i>
    <i name="e_fr_energy">   -124.05765386 </i>
    <i name="e_wo_entrp">   -124.05452810 </i>
    <i name="e_0_energy">   -124.05609098 </i>
   </energy>
  </scstep>
  <scstep>
   <time name="dav">    2.02    2.03</time>
   <time name="total">    2.14    2.17</time>
   <energy>
    <i name="e_fr_energy">   -124.05764893 </i>
    <i name="e_wo_entrp">   -124.05452082 </i>
    <i name="e_0_energy">   -124.05608488 </i>
   </energy>
  </scstep>
  <scstep>
   <time name="dav">    2.22    2.23</time>
   <time name="total">    2.34    2.37</time>
   <energy>
    <i name="e_fr_energy">   -124.05764622 </i>
    <i name="e_wo_entrp">   -124.05451658 </i>
    <i name="e_0_energy">   -124.05608140 </i>
   </energy>
  </scstep>
  <scstep>
   <time name="dav">    1.78    1.80</time>
   <time name="total">    1.82    1.83</time>
   <energy>
    <i name="alphaZ">     60.59237790 </i>
    <i name="ewald">   4492.44299737 </i>
    <i name="hartreedc">  -6103.16369513 </i>
    <i name="XCdc">    168.54551855 </i>
    <i name="pawpsdc">   5794.33025802 </i>
    <i name="pawaedc">  -5793.70541064 </i>
    <i name="eentropy">     -0.00313010 </i>
    <i name="bandstr">   -489.60210507 </i>
    <i name="atom">   1746.50554237 </i>
    <i name="e_fr_energy">   -124.05764672 </i>
    <i name="e_wo_entrp">   -124.05451663 </i>
    <i name="e_0_energy">   -124.05608168 </i>
   </energy>
  </scstep>
  <structure>
   <crystal>
    <varray name="basis" >
     <v>       4.30761036       2.48700000       0.00000000 </v>
     <v>      -4.30761036       2.48700000       0.00000000 </v>
     <v>       0.00000000       0.00000000      15.00000000 </v>
    </varray>
    <i name="volume">    321.39080884 </i>
    <varray name="rec_basis" >
     <v>       0.11607364       0.20104544       0.00000000 </v>
     <v>      -0.11607364       0.20104544       0.00000000 </v>
     <v>       0.00000000       0.00000000       0.06666667 </v>
    </varray>
   </crystal>
   <varray name="positions" >
    <v>       0.66851987       0.00001260       0.16708101 </v>
    <v>       0.33149173       0.00001260       0.16708101 </v>
    <v>      -0.00001260       0.33147913       0.16708101 </v>
    <v>      -0.00001260       0.66850727       0.16708101 </v>
    <v>       0.33149173       0.33147913       0.16708101 </v>
    <v>       0.66851987       0.66850727       0.16708101 </v>
    <v>       0.66666600       0.33333300       0.15385398 </v>
    <v>       0.33333300       0.66666600       0.17998084 </v>
    <v>       0.16665267       0.33330635       0.40073579 </v>
    <v>       0.33337218       0.16668559       0.40064120 </v>
    <v>       0.16665267       0.83334633       0.40073579 </v>
    <v>       0.33333300       0.66666600       0.40081410 </v>
    <v>       0.66666600       0.33333300       0.40060068 </v>
    <v>       0.83331341       0.16668559       0.40064120 </v>
    <v>       0.66669265       0.83334633       0.40073579 </v>
    <v>       0.83331341       0.66662682       0.40064120 </v>
   </varray>
  </structure>
  <varray name="forces" >
   <v>       0.00578440       0.01291705      -0.00005332 </v>
   <v>      -0.01407869       0.00144909      -0.00005332 </v>
   <v>       0.00578440      -0.01291705      -0.00005332 </v>
   <v>      -0.01407869      -0.00144909      -0.00005332 </v>
   <v>       0.00829429      -0.01146796      -0.00005332 </v>
   <v>       0.00829429       0.01146796      -0.00005332 </v>
   <v>       0.00000000      -0.00000000       0.00096621 </v>
   <v>       0.00000000      -0.00000000       0.00871583 </v>
   <v>       0.00048472      -0.00083956       0.00138099 </v>
   <v>      -0.00647821      -0.01122059      -0.00325787 </v>
   <v>      -0.00096943      -0.00000000       0.00138099 </v>
   <v>       0.00000000      -0.00000000      -0.00758578 </v>
   <v>       0.00000000      -0.00000000       0.00385428 </v>
   <v>       0.01295642      -0.00000000      -0.00325787 </v>
   <v>       0.00048472       0.00083956       0.00138099 </v>
   <v>      -0.00647821       0.01122059      -0.00325787 </v>
  </varray>
  <varray name="stress" >
   <v>       3.20309964       0.00000000       0.00000000 </v>
   <v>       0.00000000       3.20309964       0.00000000 </v>
   <v>      -0.00000000       0.00000000      -1.73606547 </v>
  </varray>
  <energy>
   <i name="e_fr_energy">   -125.92619305 </i>
   <i name="e_wo_entrp">   -125.92306296 </i>
   <i name="e_0_energy">   -125.92462800 </i>
  </energy>
  <time name="totalsc">    9.31    9.42</time>
 </calculation>
 <calculation>
  <scstep>
   <time name="dav">    1.62    1.63</time>
   <time name="total">    1.74    1.76</time>
   <energy>
    <i name="alphaZ">     60.59237790 </i>
    <i name="ewald">   4492.92404461 </i>
    <i name="hartreedc">  -6103.64966606 </i>
    <i name="XCdc">    168.54561999 </i>
    <i name="pawpsdc">   5794.31383219 </i>
    <i name="pawaedc">  -5793.68898353 </i>
    <i name="eentropy">     -0.00312921 </i>
    <i name="bandstr">   -489.59718746 </i>
    <i name="atom">   1746.50554237 </i>
    <i name="e_fr_energy">   -124.05754921 </i>
    <i name="e_wo_entrp">   -124.05441999 </i>
    <i name="e_0_energy">   -124.05598460 </i>
   </energy>
  </scstep>
  <scstep>
   <time name="dav">    1.56    1.57</time>
   <time name="total">    1.59    1.61</time>
   <energy>
    <i name="alphaZ">     60.59237790 </i>
    <i name="ewald">   4492.92404461 </i>
    <i name="hartreedc">  -6103.65377274 </i>
    <i name="XCdc">    168.54549691 </i>
    <i name="pawpsdc">   5794.25659016 </i>
    <i name="pawaedc">  -5793.63172978 </i>
    <i name="eentropy">     -0.00312956 </i>
    <i name="bandstr">   -489.59296888 </i>
    <i name="atom">   1746.50554237 </i>
    <i name="e_fr_energy">   -124.05754901 </i>
    <i name="e_wo_entrp">   -124.05441946 </i>
    <i name="e_0_energy">   -124.05598424 </i>
   </energy>
  </scstep>
  <structure>
   <crystal>
    <varray name="basis" >
     <v>       4.30761036       2.48700000       0.00000000 </v>
     <v>      -4.30761036       2.48700000       0.00000000 </v>
     <v>       0.00000000       0.00000000      15.00000000 </v>
    </varray>
    <i name="volume">    321.39080884 </i>
    <varray name="rec_basis" >
     <v>       0.11607364       0.20104544       0.00000000 </v>
     <v>      -0.11607364       0.20104544       0.00000000 </v>
     <v>       0.00000000       0.00000000       0.06666667 </v>
    </varray>
   </crystal>
   <varray name="positions" >
    <v>       0.66852296       0.00001155       0.16708683 </v>
    <v>       0.33148759       0.00001155       0.16708683 </v>
    <v>      -0.00001155       0.33147604       0.16708683 </v>
    <v>      -0.00001155       0.66851141       0.16708683 </v>
    <v>       0.33148759       0.33147604       0.16708683 </v>
    <v>       0.66852296       0.66851141       0.16708683 </v>
    <v>       0.66666600       0.33333300       0.15387127 </v>
    <v>       0.33333300       0.66666600       0.18000389 </v>
    <v>       0.16665237       0.33330574       0.40072619 </v>
    <v>       0.33336591       0.16668246       0.40063312 </v>
    <v>       0.16665237       0.83334663       0.40072619 </v>
    <v>       0.33333300       0.66666600       0.40079886 </v>
    <v>       0.66666600       0.33333300       0.40059373 </v>
    <v>       0.83331654       0.16668246       0.40063312 </v>
    <v>       0.66669326       0.83334663       0.40072619 </v>
    <v>       0.83331654       0.66663309       0.40063312 </v>
   </varray>
  </structure>
  <varray name="forces" >
   <v>       0.00533438       0.01225732       0.00017389 </v>
   <v>      -0.01328234       0.00150895       0.00017389 </v>
   <v>       0.00533438      -0.01225732       0.00017389 </v>
   <v>      -0.01328234      -0.00150895       0.00017389 </v>
   <v>       0.00794796      -0.01074837       0.00017389 </v>
   <v>       0.00794796       0.01074837       0.00017389 </v>
   <v>      -0.00000000       0.00000000       0.00072613 </v>
   <v>      -0.00000000       0.00000000       0.00837493 </v>
   <v>       0.00042408      -0.00073453       0.00109343 </v>
   <v>      -0.00545897      -0.00945521      -0.00346827 </v>
   <v>      -0.00084817       0.00000000       0.00109343 </v>
   <v>      -0.00000000       0.00000000      -0.00652787 </v>
   <v>      -0.00000000       0.00000000       0.00350799 </v>
   <v>       0.01091794       0.00000000      -0.00346827 </v>
   <v>       0.00042408       0.00073453       0.00109343 </v>
   <v>      -0.00545897       0.00945521      -0.00346827 </v>
  </varray>
  <varray name="stress" >
   <v>       3.19749576       0.00000000       0.00000000 </v>
   <v>       0.00000000       3.19749576       0.00000000 </v>
   <v>       0.00000000       0.00000000      -1.73394415 </v>
  </varray>
  <energy>
   <i name="e_fr_energy">   -125.92620004 </i>
   <i name="e_wo_entrp">   -125.92307048 </i>
   <i name="e_0_energy">   -125.92463526 </i>
  </energy>
  <time name="totalsc">    4.79    4.84</time>
 </calculation>
 <calculation>
  <scstep>
   <time name="dav">    1.43    1.44</time>
   <time name="total">    1.55    1.57</time>
   <energy>
    <i name="alphaZ">     60.59237790 </i>
    <i name="ewald">   4494.36727966 </i>
    <i name="hartreedc">  -6105.10372148 </i>
    <i name="XCdc">    168.54590267 </i>
    <i name="pawpsdc">   5794.23790246 </i>
    <i name="pawaedc">  -5793.61303557 </i>
    <i name="eentropy">     -0.00312559 </i>
    <i name="bandstr">   -489.58637572 </i>
    <i name="atom">   1746.50554237 </i>
    <i name="e_fr_energy">   -124.05725330 </i>
    <i name="e_wo_entrp">   -124.05412771 </i>
    <i name="e_0_energy">   -124.05569050 </i>
   </energy>
  </scstep>
  <scstep>
   <time name="dav">    1.43    1.44</time>
   <time name="total">    1.55    1.57</time>
   <energy>
    <i name="e_fr_energy">   -124.05725202 </i>
    <i name="e_wo_entrp">   -124.05412607 </i>
    <i name="e_0_energy">   -124.05568905 </i>
   </energy>
  </scstep>
  <scstep>
   <time name="dav">    1.92    1.93</time>
   <time name="total">    1.95    1.97</time>
   <energy>
    <i name="alphaZ">     60.59237790 </i>
    <i name="ewald">   4494.36727966 </i>
    <i name="hartreedc">  -6105.10979006 </i>
    <i name="XCdc">    168.54550575 </i>
    <i name="pawpsdc">   5794.06275199 </i>
    <i name="pawaedc">  -5793.43783001 </i>
    <i name="eentropy">     -0.00312518 </i>
    <i name="bandstr">   -489.57996393 </i>
    <i name="atom">   1746.50554237 </i>
    <i name="e_fr_energy">   -124.05725151 </i>
    <i name="e_wo_entrp">   -124.05412633 </i>
    <i name="e_0_energy">   -124.05568892 </i>
   </energy>
  </scstep>
  <structure>
   <crystal>
    <varray name="basis" >
     <v>       4.30761036       2.48700000       0.00000000 </v>
     <v>      -4.30761036       2.48700000       0.00000000 </v>
     <v>       0.00000000       0.00000000      15.00000000 </v>
    </varray>
    <i name="volume">    321.39080884 </i>
    <varray name="rec_basis" >
     <v>       0.11607364       0.20104544       0.00000000 </v>
     <v>      -0.11607364       0.20104544       0.00000000 </v>
     <v>       0.00000000       0.00000000       0.06666667 </v>
    </varray>
   </crystal>
   <varray name="positions" >
    <v>       0.66853222       0.00000840       0.16710430 </v>
    <v>       0.33147518       0.00000840       0.16710430 </v>
    <v>      -0.00000840       0.33146678       0.16710430 </v>
    <v>      -0.00000840       0.66852382       0.16710430 </v>
    <v>       0.33147518       0.33146678       0.16710430 </v>
    <v>       0.66853222       0.66852382       0.16710430 </v>
    <v>       0.66666600       0.33333300       0.15392314 </v>
    <v>       0.33333300       0.66666600       0.18007303 </v>
    <v>       0.16665147       0.33330393       0.40069739 </v>
    <v>       0.33334710       0.16667305       0.40060885 </v>
    <v>       0.16665147       0.83334753       0.40069739 </v>
    <v>       0.33333300       0.66666600       0.40075312 </v>
    <v>       0.66666600       0.33333300       0.40057285 </v>
    <v>       0.83332595       0.16667305       0.40060885 </v>
    <v>       0.66669507       0.83334753       0.40069739 </v>
    <v>       0.83332595       0.66665190       0.40060885 </v>
   </varray>
  </structure>
  <varray name="forces" >
   <v>       0.00359844       0.01009901      -0.00005991 </v>
   <v>      -0.01054522       0.00193316      -0.00005991 </v>
   <v>       0.00359844      -0.01009901      -0.00005991 </v>
   <v>      -0.01054522      -0.00193316      -0.00005991 </v>
   <v>       0.00694678      -0.00816585      -0.00005991 </v>
   <v>       0.00694678       0.00816585      -0.00005991 </v>
   <v>       0.00000000      -0.00000000      -0.00057884 </v>
   <v>       0.00000000      -0.00000000       0.00620376 </v>
   <v>       0.00013214      -0.00022887       0.00115966 </v>
   <v>      -0.00231475      -0.00400927      -0.00324726 </v>
   <v>      -0.00026428      -0.00000000       0.00115966 </v>
   <v>       0.00000000      -0.00000000      -0.00208105 </v>
   <v>       0.00000000      -0.00000000       0.00307839 </v>
   <v>       0.00462950      -0.00000000      -0.00324726 </v>
   <v>       0.00013214       0.00022887       0.00115966 </v>
   <v>      -0.00231475       0.00400927      -0.00324726 </v>
  </varray>
  <varray name="stress" >
   <v>       3.18076920       0.00000000       0.00000000 </v>
   <v>       0.00000000       3.18076920       0.00000000 </v>
   <v>      -0.00000000      -0.00000000      -1.72012572 </v>
  </varray>
  <energy>
   <i name="e_fr_energy">   -125.92621670 </i>
   <i name="e_wo_entrp">   -125.92309153 </i>
   <i name="e_0_energy">   -125.92465411 </i>
  </energy>
  <time name="totalsc">    6.53    6.60</time>
 </calculation>
 <calculation>
  <scstep>
   <time name="dav">    1.44    1.45</time>
   <time name="total">    1.57    1.59</time>
   <energy>
    <i name="alphaZ">     60.59237790 </i>
    <i name="ewald">   4497.25417000 </i>
    <i name="hartreedc">  -6108.00087091 </i>
    <i name="XCdc">    168.54642489 </i>
    <i name="pawpsdc">   5794.06884449 </i>
    <i name="pawaedc">  -5793.44392114 </i>
    <i name="eentropy">     -0.00311662 </i>
    <i name="bandstr">   -489.57609572 </i>
    <i name="atom">   1746.50554237 </i>
    <i name="e_fr_energy">   -124.05664475 </i>
    <i name="e_wo_entrp">   -124.05352813 </i>
    <i name="e_0_energy">   -124.05508644 </i>
   </energy>
  </scstep>
  <scstep>
   <time name="dav">    1.43    1.44</time>
   <time name="total">    1.55    1.58</time>
   <energy>
    <i name="e_fr_energy">   -124.05664095 </i>
    <i name="e_wo_entrp">   -124.05352368 </i>
    <i name="e_0_energy">   -124.05508232 </i>
   </energy>
  </scstep>
  <scstep>
   <time name="dav">    2.28    2.29</time>
   <time name="total">    2.40    2.42</time>
   <energy>
    <i name="e_fr_energy">   -124.05663828 </i>
    <i name="e_wo_entrp">   -124.05352262 </i>
    <i name="e_0_energy">   -124.05508045 </i>
   </energy>
  </scstep>
  <scstep>
   <time name="dav">    1.56    1.57</time>
   <time name="total">    1.60    1.61</time>
   <energy>
    <i name="alphaZ">     60.59237790 </i>
    <i name="ewald">   4497.25417000 </i>
    <i name="hartreedc">  -6107.99612656 </i>
    <i name="XCdc">    168.54570625 </i>
    <i name="pawpsdc">   5793.76607149 </i>
    <i name="pawaedc">  -5793.14103995 </i>
    <i name="eentropy">     -0.00311428 </i>
    <i name="bandstr">   -489.58022574 </i>
    <i name="atom">   1746.50554237 </i>
    <i name="e_fr_energy">   -124.05663851 </i>
    <i name="e_wo_entrp">   -124.05352423 </i>
    <i name="e_0_energy">   -124.05508137 </i>
   </energy>
  </scstep>
  <structure>
   <crystal>
    <varray name="basis" >
     <v>       4.30761036       2.48700000       0.00000000 </v>
     <v>      -4.30761036       2.48700000       0.00000000 </v>
     <v>       0.00000000       0.00000000      15.00000000 </v>
    </varray>
    <i name="volume">    321.39080884 </i>
    <varray name="rec_basis" >
     <v>       0.11607364       0.20104544       0.00000000 </v>
     <v>      -0.11607364       0.20104544       0.00000000 </v>
     <v>       0.00000000       0.00000000       0.06666667 </v>
    </varray>
   </crystal>
   <varray name="positions" >
    <v>       0.66855074       0.00000210       0.16713924 </v>
    <v>       0.33145036       0.00000210       0.16713924 </v>
    <v>      -0.00000210       0.33144826       0.16713924 </v>
    <v>      -0.00000210       0.66854864       0.16713924 </v>
    <v>       0.33145036       0.33144826       0.16713924 </v>
    <v>       0.66855074       0.66854864       0.16713924 </v>
    <v>       0.66666600       0.33333300       0.15402688 </v>
    <v>       0.33333300       0.66666600       0.18021130 </v>
    <v>       0.16664965       0.33330030       0.40063979 </v>
    <v>       0.33330949       0.16665424       0.40056031 </v>
    <v>       0.16664965       0.83334935       0.40063979 </v>
    <v>       0.33333300       0.66666600       0.40066165 </v>
    <v>       0.66666600       0.33333300       0.40053111 </v>
    <v>       0.83334476       0.16665424       0.40056031 </v>
    <v>       0.66669870       0.83334935       0.40063979 </v>
    <v>       0.83334476       0.66668951       0.40056031 </v>
   </varray>
  </structure>
  <varray name="forces" >
   <v>       0.00034331       0.00624906       0.00087163 </v>
   <v>      -0.00558350       0.00282721       0.00087163 </v>
   <v>       0.00034331      -0.00624906       0.00087163 </v>
   <v>      -0.00558350      -0.00282721       0.00087163 </v>
   <v>       0.00524019      -0.00342185       0.00087163 </v>
   <v>       0.00524019       0.00342185       0.00087163 </v>
   <v>       0.00000000      -0.00000000      -0.00228939 </v>
   <v>      -0.00000000      -0.00000000       0.00294870 </v>
   <v>      -0.00029286       0.00050725      -0.00003827 </v>
   <v>       0.00365692       0.00633397      -0.00397676 </v>
   <v>       0.00058572      -0.00000000      -0.00003827 </v>
   <v>      -0.00000000      -0.00000000       0.00514104 </v>
   <v>       0.00000000      -0.00000000       0.00101494 </v>
   <v>      -0.00731384      -0.00000000      -0.00397676 </v>
   <v>      -0.00029286      -0.00050725      -0.00003827 </v>
   <v>       0.00365692      -0.00633397      -0.00397676 </v>
  </varray>
  <varray name="stress" >
   <v>       3.14776018       0.00000000      -0.00000000 </v>
   <v>       0.00000000       3.14776018       0.00000000 </v>
   <v>       0.00000000       0.00000000      -1.69636641 </v>
  </varray>
  <energy>
   <i name="e_fr_energy">   -125.92623252 </i>
   <i name="e_wo_entrp">   -125.92311824 </i>
   <i name="e_0_energy">   -125.92467538 </i>
  </energy>
  <time name="totalsc">    8.56    8.66</time>
 </calculation>
