Lattice                                 
           1
     4.161252    2.402500    0.000000
    -4.161252    2.402500    0.000000
     0.000000    0.000000   15.000000
   B    C 
     4    11
Direct configuration=     1
   0.00415361  0.00267210  0.12034134
   0.35695335  0.00285503  0.09748893
   0.00423858  0.35550699  0.09749256
   0.65142295  0.65006557  0.09747688
   0.32808646  0.32671938  0.10030508
   0.68027775  0.00278085  0.10027562
   0.00416530  0.67883808  0.10026559
   0.99999933  0.49999967  0.33373333
   0.16666633  0.33333267  0.33373333
   0.99999933  0.99999967  0.33373333
   0.16666633  0.83333267  0.33373333
   0.49999933  0.49999967  0.33373333
   0.66666633  0.33333267  0.33373333
   0.49999933  0.99999967  0.33373333
   0.66666633  0.83333267  0.33373333
Direct configuration=     2
   0.00418326  0.00276084  0.11951021
   0.35612881  0.00302164  0.09775508
   0.00396136  0.35446661  0.09775733
   0.65245611  0.65084216  0.09774632
   0.32553627  0.32383072  0.10028910
   0.68312629  0.00309840  0.10026686
   0.00389632  0.68141159  0.10025921
   0.00012744  0.49998239  0.33374047
   0.16688412  0.33395435  0.33379664
   0.99999879  0.99999328  0.33362855
   0.16706236  0.83311334  0.33379948
   0.50003298  0.50015730  0.33374333
   0.66666601  0.33333783  0.33368365
   0.49985693  0.99987092  0.33374004
   0.66604362  0.83292595  0.33379638
Direct configuration=     3
   0.00416630  0.00271007  0.11998574
   0.35660057  0.00292632  0.09760281
   0.00411997  0.35506187  0.09760585
   0.65186499  0.65039783  0.09759216
   0.32699537  0.32548347  0.10029824
   0.68149650  0.00291672  0.10027187
   0.00405022  0.67993915  0.10026286
   0.00005414  0.49999227  0.33373639
   0.16675951  0.33359865  0.33376042
   0.99999910  0.99999693  0.33368850
   0.16683577  0.83323883  0.33376164
   0.50001373  0.50006711  0.33373761
   0.66666620  0.33333488  0.33371208
   0.49993840  0.99994458  0.33373620
   0.66639990  0.83315865  0.33376031
Direct configuration=     4
   0.00418173  0.00277083  0.11929354
   0.35697086  0.00302847  0.09784365
   0.00392897  0.35530166  0.09784523
   0.65164157  0.64999490  0.09783627
   0.32702770  0.32530332  0.10026001
   0.68165282  0.00310158  0.10024086
   0.00387919  0.67992753  0.10023376
  -0.00008865  0.50000272  0.33375302
   0.16662826  0.33317191  0.33380372
   0.00000002  0.00000280  0.33361868
   0.16655283  0.83337752  0.33380721
   0.49999317  0.49990705  0.33375651
   0.66666933  0.33333220  0.33366443
   0.50008925  0.00008896  0.33375243
   0.66683363  0.83345589  0.33380333
Direct configuration=     5
   0.00419384  0.00281847  0.11875083
   0.35726118  0.00310856  0.09803248
   0.00377922  0.35548966  0.09803292
   0.65146640  0.64967898  0.09802767
   0.32705305  0.32516207  0.10023004
   0.68177538  0.00324652  0.10021654
   0.00374509  0.67991841  0.10021096
  -0.00020061  0.50001092  0.33376607
   0.16652535  0.33283732  0.33383767
   0.00000074  0.00000740  0.33356394
   0.16633098  0.83348626  0.33384294
   0.49997706  0.49978156  0.33377133
   0.66667178  0.33333011  0.33362707
   0.50020752  0.00020215  0.33376516
   0.66717369  0.83368894  0.33383707
Direct configuration=     6
   0.00419667  0.00283075  0.11855380
   0.35736091  0.00312548  0.09809364
   0.00374376  0.35556753  0.09809371
   0.65139399  0.64957229  0.09808964
   0.32710805  0.32518155  0.10022641
   0.68175130  0.00327477  0.10021485
   0.00371623  0.67986821  0.10020974
  -0.00017081  0.50001077  0.33377149
   0.16653570  0.33289191  0.33384650
   0.00000199  0.00000711  0.33355107
   0.16637306  0.83347513  0.33385226
   0.49998022  0.49981233  0.33377724
   0.66667146  0.33333083  0.33361601
   0.50017959  0.00017363  0.33377047
   0.66711855  0.83364506  0.33384583
Direct configuration=     7
   0.00420517  0.00286760  0.11796273
   0.35766010  0.00317625  0.09827712
   0.00363737  0.35580113  0.09827609
   0.65117678  0.64925221  0.09827554
   0.32727306  0.32523998  0.10021554
   0.68167903  0.00335953  0.10020979
   0.00362964  0.67971761  0.10020610
  -0.00008141  0.50001031  0.33378775
   0.16656676  0.33305567  0.33387300
   0.00000572  0.00000622  0.33351248
   0.16649930  0.83344173  0.33388023
   0.49998972  0.49990463  0.33379496
   0.66667049  0.33333300  0.33358281
   0.50009578  0.00008804  0.33378642
   0.66695314  0.83351341  0.33387211
Direct configuration=     8
   0.00422217  0.00294131  0.11678057
   0.35825849  0.00327779  0.09864407
   0.00342460  0.35626833  0.09864083
   0.65074235  0.64861206  0.09864735
   0.32760309  0.32535685  0.10019380
   0.68153450  0.00352906  0.10019967
   0.00345646  0.67941642  0.10019882
   0.00009738  0.50000939  0.33382027
   0.16662888  0.33338320  0.33392599
   0.00001320  0.00000443  0.33343530
   0.16675177  0.83337494  0.33393616
   0.50000873  0.50008925  0.33383040
   0.66666856  0.33333734  0.33351643
   0.49992817 -0.00008314  0.33381832
   0.66662231  0.83325010  0.33392468
Direct configuration=     9
   0.00422909  0.00297129  0.11629970
   0.35850191  0.00331910  0.09879334
   0.00333805  0.35645838  0.09878921
   0.65056564  0.64835165  0.09879859
   0.32773733  0.32540438  0.10018495
   0.68147571  0.00359802  0.10019556
   0.00338602  0.67929390  0.10019586
   0.00017011  0.50000901  0.33383350
   0.16665415  0.33351643  0.33394755
   0.00001624  0.00000371  0.33340391
   0.16685447  0.83334777  0.33395891
   0.50001646  0.50016434  0.33384482
   0.66666777  0.33333911  0.33348943
   0.49985999 -0.00015277  0.33383129
   0.66648773  0.83314300  0.33394606
Direct configuration=    10
   0.00422627  0.00296296  0.11588419
   0.35847328  0.00327980  0.09886292
   0.00338835  0.35647847  0.09885853
   0.65055238  0.64838013  0.09886869
   0.32777045  0.32552110  0.10023707
   0.68136265  0.00350877  0.10025033
   0.00345324  0.67926096  0.10025107
   0.00009680  0.50001723  0.33384481
   0.16671717  0.33354125  0.33394308
   0.00000955  0.00000322  0.33342665
   0.16683056  0.83329419  0.33395428
   0.50000238  0.50008706  0.33385589
   0.66667401  0.33333996  0.33349117
   0.49993148 -0.00008495  0.33384247
   0.66647210  0.83317718  0.33394153
Direct configuration=    11
   0.00421782  0.00293795  0.11463766
   0.35838739  0.00316191  0.09907164
   0.00353924  0.35653876  0.09906649
   0.65051262  0.64846558  0.09907898
   0.32786980  0.32587126  0.10039343
   0.68102347  0.00324102  0.10041467
   0.00365492  0.67916214  0.10041671
  -0.00012314  0.50004188  0.33387871
   0.16690623  0.33361569  0.33392966
  -0.00001053  0.00000177  0.33349487
   0.16675882  0.83313342  0.33394037
   0.49996015  0.49985522  0.33388912
   0.66669272  0.33334249  0.33349641
   0.50014596  0.00011852  0.33387601
   0.66642519  0.83327975  0.33392794
Direct configuration=    12
   0.00420091  0.00288794  0.11214461
   0.35821562  0.00292614  0.09948908
   0.00384104  0.35665932  0.09948243
   0.65043308  0.64863646  0.09949957
   0.32806850  0.32657156  0.10070615
   0.68034511  0.00270551  0.10074334
   0.00405827  0.67896449  0.10074799
  -0.00056302  0.50009117  0.33394652
   0.16728436  0.33376457  0.33390282
  -0.00005069 -0.00000115  0.33363130
   0.16661534  0.83281189  0.33391256
   0.49987570  0.49939153  0.33395557
   0.66673014  0.33334755  0.33350689
   0.50057492  0.00052546  0.33394308
   0.66633139  0.83348488  0.33390076
Direct configuration=    13
   0.00420698  0.00290589  0.11303972
   0.35827730  0.00301079  0.09933920
   0.00373268  0.35661603  0.09933309
   0.65046164  0.64857511  0.09934856
   0.32799716  0.32632012  0.10059387
   0.68058867  0.00289778  0.10062533
   0.00391345  0.67903545  0.10062905
  -0.00040509  0.50007347  0.33392218
   0.16714859  0.33371112  0.33391245
  -0.00003627 -0.00000010  0.33358232
   0.16666686  0.83292734  0.33392254
   0.49990602  0.49955801  0.33393171
   0.66671671  0.33334573  0.33350313
   0.50042090  0.00037936  0.33391900
   0.66636507  0.83341123  0.33391052
Direct configuration=    14
   0.00420473  0.00289358  0.11256083
   0.35825762  0.00296523  0.09940633
   0.00380668  0.35665077  0.09940034
   0.65041943  0.64860107  0.09941570
   0.32799873  0.32641749  0.10066616
   0.68049195  0.00280936  0.10069950
   0.00399006  0.67901820  0.10070343
  -0.00027948  0.50003123  0.33392680
   0.16698592  0.33361438  0.33390792
  -0.00001305  0.00000433  0.33361939
   0.16669679  0.83306850  0.33391735
   0.49997178  0.49971246  0.33393555
   0.66670013  0.33334435  0.33352381
   0.50028975  0.00027749  0.33392353
   0.66643963  0.83335888  0.33390603
Direct configuration=    15
   0.00419951  0.00286507  0.11145207
   0.35821207  0.00285975  0.09956176
   0.00397800  0.35673121  0.09955603
   0.65032171  0.64866117  0.09957116
   0.32800236  0.32664292  0.10083353
   0.68026803  0.00260464  0.10087122
   0.00416744  0.67897825  0.10087563
   0.00001133  0.49993343  0.33393750
   0.16660929  0.33339043  0.33389744
   0.00004069  0.00001459  0.33370524
   0.16676608  0.83339532  0.33390533
   0.50012404  0.50007006  0.33394443
   0.66666176  0.33334115  0.33357169
   0.49998609  0.00004166  0.33393402
   0.66661227  0.83323767  0.33389563
Direct configuration=    16
   0.00419903  0.00285986  0.11133245
   0.35829562  0.00287053  0.09957526
   0.00398248  0.35679909  0.09957007
   0.65023141  0.64858495  0.09958394
   0.32798060  0.32659136  0.10085284
   0.68031535  0.00265376  0.10088918
   0.00414165  0.67898158  0.10089325
   0.00005499  0.49998240  0.33392540
   0.16664839  0.33339447  0.33390358
   0.00002555  0.00001199  0.33371906
   0.16675886  0.83337423  0.33391091
   0.50005744  0.50007580  0.33393171
   0.66667870  0.33334440  0.33360107
   0.49996288 -0.00001907  0.33392205
   0.66662773  0.83326198  0.33390189
Direct configuration=    17
   0.00419778  0.00284616  0.11101840
   0.35851500  0.00289884  0.09961070
   0.00399424  0.35697731  0.09960694
   0.64999431  0.64838484  0.09961750
   0.32792346  0.32645599  0.10090354
   0.68043960  0.00278272  0.10093633
   0.00407392  0.67899032  0.10093953
   0.00016962  0.50011096  0.33389364
   0.16675105  0.33340510  0.33391971
  -0.00001421  0.00000515  0.33375535
   0.16673989  0.83331885  0.33392556
   0.49988258  0.50009085  0.33389832
   0.66672317  0.33335295  0.33367819
   0.49990192 -0.00017852  0.33389063
   0.66666833  0.83332581  0.33391832
Direct configuration=    18
   0.00418772  0.00282028  0.11086343
   0.35867006  0.00293146  0.09963138
   0.00397833  0.35709374  0.09962866
   0.64984475  0.64824151  0.09963654
   0.32791342  0.32635938  0.10092196
   0.68054004  0.00289831  0.10095095
   0.00399893  0.67898840  0.10095336
   0.00009870  0.50006009  0.33387434
   0.16672768  0.33341832  0.33392993
   0.00001493  0.00001063  0.33378028
   0.16672525  0.83330992  0.33393480
   0.49996859  0.50005001  0.33387790
   0.66669309  0.33334817  0.33372873
   0.49997784 -0.00007279  0.33387160
   0.66662135  0.83330990  0.33392880
Direct configuration=    19
   0.00418109  0.00280322  0.11076126
   0.35877230  0.00295297  0.09964502
   0.00396783  0.35717051  0.09964297
   0.64974614  0.64814701  0.09964909
   0.32790680  0.32629568  0.10093411
   0.68060627  0.00297452  0.10096059
   0.00394949  0.67898714  0.10096247
   0.00005194  0.50002655  0.33386161
   0.16671227  0.33342703  0.33393667
   0.00003414  0.00001424  0.33379672
   0.16671560  0.83330402  0.33394089
   0.50002530  0.50002309  0.33386444
   0.66667326  0.33334502  0.33376205
   0.50002789 -0.00000307  0.33385905
   0.66659036  0.83329941  0.33393572
Direct configuration=    20
   0.00416907  0.00277863  0.11072019
   0.35878145  0.00296746  0.09965697
   0.00395053  0.35716957  0.09965531
   0.64974972  0.64814043  0.09966014
   0.32793870  0.32629664  0.10092868
   0.68061711  0.00300459  0.10095250
   0.00392030  0.67897191  0.10095386
   0.00002133  0.49999123  0.33386561
   0.16670165  0.33342620  0.33393502
   0.00001848  0.00001176  0.33381061
   0.16675702  0.83333509  0.33393910
   0.50004248  0.50003964  0.33386825
   0.66668976  0.33334736  0.33376899
   0.49999307  0.00000897  0.33386325
   0.66661000  0.83327785  0.33393419
Direct configuration=    21
   0.00416047  0.00276104  0.11069081
   0.35878801  0.00297783  0.09966552
   0.00393815  0.35716890  0.09966413
   0.64975228  0.64813572  0.09966805
   0.32796152  0.32629732  0.10092480
   0.68062487  0.00302610  0.10094670
   0.00389942  0.67896101  0.10094769
  -0.00000058  0.49996597  0.33386848
   0.16669406  0.33342561  0.33393384
   0.00000728  0.00000999  0.33382055
   0.16678666  0.83335731  0.33393782
   0.50005477  0.50005149  0.33387097
   0.66670156  0.33334904  0.33377396
   0.49996816  0.00001758  0.33386626
   0.66662405  0.83326242  0.33393309
Direct configuration=    22
   0.00415207  0.00274385  0.11065189
   0.35877992  0.00299337  0.09967823
   0.00392152  0.35714849  0.09967725
   0.64977478  0.64814613  0.09967970
   0.32799075  0.32630533  0.10091598
   0.68062412  0.00304637  0.10093463
   0.00387822  0.67894246  0.10093500
   0.00001907  0.49998198  0.33387626
   0.16669636  0.33342313  0.33393203
   0.00001217  0.00001086  0.33383431
   0.16677385  0.83335032  0.33393598
   0.50004468  0.50005191  0.33387866
   0.66669742  0.33334864  0.33377709
   0.49997351  0.00000414  0.33387424
   0.66662223  0.83327035  0.33393142
Direct configuration=    23
   0.00413240  0.00270361  0.11056079
   0.35876098  0.00302975  0.09970799
   0.00388258  0.35710071  0.09970796
   0.64982745  0.64817050  0.09970698
   0.32805918  0.32632406  0.10089535
   0.68062238  0.00309380  0.10090637
   0.00382860  0.67889904  0.10090528
   0.00006505  0.50001947  0.33389448
   0.16670174  0.33341731  0.33392780
   0.00002364  0.00001290  0.33386650
   0.16674386  0.83333396  0.33393167
   0.50002106  0.50005290  0.33389666
   0.66668773  0.33334771  0.33378441
   0.49998604 -0.00002733  0.33389292
   0.66661796  0.83328894  0.33392749
Direct configuration=    24
   0.00414422  0.00272592  0.11051894
   0.35875843  0.00303723  0.09971500
   0.00388642  0.35708487  0.09971541
   0.64982973  0.64817406  0.09971289
   0.32803621  0.32631907  0.10089045
   0.68061098  0.00308490  0.10089804
   0.00384321  0.67889305  0.10089625
   0.00004658  0.50001642  0.33390012
   0.16670948  0.33342174  0.33393396
   0.00002522  0.00001380  0.33387048
   0.16673886  0.83332508  0.33393794
   0.50002580  0.50003638  0.33390243
   0.66668774  0.33334838  0.33378831
   0.50000481 -0.00000731  0.33389868
   0.66661298  0.83329375  0.33393376
Direct configuration=    25
   0.00417545  0.00278486  0.11040837
   0.35875170  0.00305700  0.09973353
   0.00389659  0.35704301  0.09973509
   0.64983574  0.64818347  0.09972850
   0.32797554  0.32630587  0.10087752
   0.68058086  0.00306138  0.10087604
   0.00388180  0.67887721  0.10087240
  -0.00000224  0.50000836  0.33391502
   0.16672990  0.33343344  0.33395023
   0.00002938  0.00001618  0.33388098
   0.16672563  0.83330162  0.33395451
   0.50003829  0.49999276  0.33391766
   0.66668778  0.33335012  0.33379859
   0.50005441  0.00004558  0.33391391
   0.66659983  0.83330647  0.33395031
Direct configuration=    26
   0.00416869  0.00277209  0.11043232
   0.35875316  0.00305272  0.09972952
   0.00389439  0.35705208  0.09973083
   0.64983444  0.64818144  0.09972512
   0.32798868  0.32630873  0.10088032
   0.68058738  0.00306648  0.10088081
   0.00387344  0.67888064  0.10087757
   0.00000833  0.50001010  0.33391179
   0.16672547  0.33343091  0.33394671
   0.00002848  0.00001566  0.33387870
   0.16672849  0.83330670  0.33395093
   0.50003559  0.50000221  0.33391436
   0.66668777  0.33334974  0.33379636
   0.50004367  0.00003412  0.33391061
   0.66660268  0.83330372  0.33394673
Direct configuration=    27
   0.00417224  0.00277942  0.11040461
   0.35875415  0.00305202  0.09973199
   0.00389735  0.35705239  0.09973349
   0.64983027  0.64817894  0.09972703
   0.32798009  0.32631270  0.10087857
   0.68057926  0.00305544  0.10087711
   0.00388389  0.67888163  0.10087348
   0.00001059  0.50000732  0.33391506
   0.16672297  0.33343165  0.33395204
   0.00002728  0.00001551  0.33387982
   0.16673542  0.83331186  0.33395634
   0.50003726  0.50000859  0.33391774
   0.66668949  0.33334990  0.33379933
   0.50003603  0.00003085  0.33391394
   0.66660439  0.83329910  0.33395211
Direct configuration=    28
   0.00418292  0.00280141  0.11032146
   0.35875710  0.00304991  0.09973941
   0.00390624  0.35705333  0.09974147
   0.64981777  0.64817147  0.09973278
   0.32795431  0.32632459  0.10087331
   0.68055488  0.00302233  0.10086602
   0.00391521  0.67888462  0.10086121
   0.00001737  0.49999898  0.33392489
   0.16671544  0.33343389  0.33396805
   0.00002368  0.00001503  0.33388317
   0.16675619  0.83332736  0.33397260
   0.50004229  0.50002772  0.33392787
   0.66669466  0.33335038  0.33380823
   0.50001310  0.00002103  0.33392394
   0.66660950  0.83328526  0.33396826
Direct configuration=    29
   0.00420427  0.00284539  0.11015516
   0.35876302  0.00304570  0.09975426
   0.00392401  0.35705522  0.09975742
   0.64979277  0.64815653  0.09974428
   0.32790276  0.32634839  0.10086281
   0.68050613  0.00295612  0.10084383
   0.00397786  0.67889059  0.10083668
   0.00003091  0.49998231  0.33394453
   0.16670039  0.33343837  0.33400007
   0.00001648  0.00001409  0.33388987
   0.16679774  0.83335836  0.33400511
   0.50005235  0.50006598  0.33394812
   0.66670499  0.33335134  0.33382603
   0.49996725  0.00000138  0.33394393
   0.66661974  0.83325757  0.33400056
Direct configuration=    30
   0.00419971  0.00283839  0.11010809
   0.35876745  0.00303826  0.09975582
   0.00392479  0.35707011  0.09975911
   0.64978352  0.64814830  0.09974526
   0.32790774  0.32636334  0.10086150
   0.68049679  0.00294028  0.10083993
   0.00398573  0.67889640  0.10083228
   0.00004162  0.49999083  0.33395068
   0.16670024  0.33343446  0.33400863
   0.00002008  0.00001478  0.33389276
   0.16678944  0.83335624  0.33401376
   0.50004822  0.50006609  0.33395440
   0.66670266  0.33335140  0.33383117
   0.49997135 -0.00000517  0.33395013
   0.66662132  0.83326362  0.33400915
Direct configuration=    31
   0.00418606  0.00281742  0.10996689
   0.35878076  0.00301592  0.09976052
   0.00392715  0.35711477  0.09976417
   0.64975577  0.64812362  0.09974817
   0.32792268  0.32640819  0.10085759
   0.68046876  0.00289276  0.10082823
   0.00400935  0.67891384  0.10081909
   0.00007374  0.50001641  0.33396911
   0.16669977  0.33342272  0.33403429
   0.00003089  0.00001686  0.33390142
   0.16676453  0.83334988  0.33403969
   0.50003581  0.50006641  0.33397324
   0.66669568  0.33335159  0.33384659
   0.49998366 -0.00002485  0.33396873
   0.66662607  0.83328177  0.33403493
Direct configuration=    32
   0.00415874  0.00277547  0.10968448
   0.35880736  0.00297126  0.09976991
   0.00393185  0.35720410  0.09977429
   0.64970026  0.64807426  0.09975399
   0.32795255  0.32649790  0.10084976
   0.68041270  0.00279773  0.10080483
   0.00405658  0.67894872  0.10079271
   0.00013799  0.50006757  0.33400598
   0.16669885  0.33339925  0.33408562
   0.00005252  0.00002103  0.33391875
   0.16671473  0.83333716  0.33409157
   0.50001098  0.50006706  0.33401092
   0.66668173  0.33335198  0.33387742
   0.50000828 -0.00006420  0.33400594
   0.66663555  0.83331806  0.33408649
Direct configuration=    33
   0.00414928  0.00276089  0.10959612
   0.35881906  0.00296060  0.09977020
   0.00392897  0.35723041  0.09977468
   0.64968611  0.64805985  0.09975366
   0.32796479  0.32650729  0.10084842
   0.68040921  0.00279096  0.10079993
   0.00405290  0.67895389  0.10078715
   0.00011839  0.50005985  0.33401942
   0.16670661  0.33340295  0.33409875
   0.00004856  0.00002149  0.33392887
   0.16672174  0.83333655  0.33410473
   0.50001439  0.50005896  0.33402452
   0.66668843  0.33335353  0.33388719
   0.50001273 -0.00004864  0.33401943
   0.66663949  0.83331875  0.33409961
Direct configuration=    34
   0.00412090  0.00271717  0.10933104
   0.35885418  0.00292865  0.09977108
   0.00392034  0.35730936  0.09977584
   0.64964365  0.64801663  0.09975269
   0.32800151  0.32653546  0.10084437
   0.68039876  0.00277066  0.10078524
   0.00404187  0.67896937  0.10077045
   0.00005960  0.50003670  0.33405974
   0.16672991  0.33341404  0.33413811
   0.00003667  0.00002287  0.33395923
   0.16674277  0.83333472  0.33414420
   0.50002461  0.50003468  0.33406534
   0.66670852  0.33335818  0.33391648
   0.50002607 -0.00000194  0.33405987
   0.66665130  0.83332081  0.33413899
Direct configuration=    35
   0.00406413  0.00262971  0.10880086
   0.35892442  0.00286473  0.09977285
   0.00390308  0.35746725  0.09977815
   0.64955874  0.64793018  0.09975075
   0.32807494  0.32659179  0.10083628
   0.68037785  0.00273004  0.10075585
   0.00401981  0.67900034  0.10073706
  -0.00005799  0.49999040  0.33414038
   0.16677651  0.33343622  0.33421685
   0.00001290  0.00002563  0.33401995
   0.16678482  0.83333106  0.33422315
   0.50004504  0.49998611  0.33414698
   0.66674871  0.33336749  0.33397506
   0.50005277  0.00009145  0.33414077
   0.66667493  0.83332493  0.33421773
Direct configuration=    36
   0.00409620  0.00267911  0.10910034
   0.35888474  0.00290084  0.09977185
   0.00391283  0.35737806  0.09977684
   0.64960671  0.64797901  0.09975185
   0.32803346  0.32655997  0.10084085
   0.68038966  0.00275298  0.10077245
   0.00403227  0.67898285  0.10075592
   0.00000843  0.50001655  0.33409483
   0.16675019  0.33342369  0.33417238
   0.00002633  0.00002407  0.33398565
   0.16676107  0.83333313  0.33417855
   0.50003350  0.50001354  0.33410086
   0.66672601  0.33336223  0.33394197
   0.50003769  0.00003869  0.33409508
   0.66666158  0.83332261  0.33417325
Direct configuration=    37
   0.00410497  0.00270171  0.10892081
   0.35890916  0.00290651  0.09977060
   0.00390628  0.35738438  0.09977571
   0.64958485  0.64795717  0.09975035
   0.32802490  0.32651142  0.10083509
   0.68040965  0.00280290  0.10076314
   0.00399568  0.67895709  0.10074590
   0.00002482  0.50000435  0.33412529
   0.16673377  0.33343695  0.33419286
   0.00003857  0.00002607  0.33401847
   0.16677689  0.83334405  0.33419872
   0.50006059  0.50003525  0.33413138
   0.66671813  0.33336176  0.33396534
   0.50003040  0.00003811  0.33412543
   0.66664200  0.83329961  0.33419358
Direct configuration=    38
   0.00412369  0.00274989  0.10853807
   0.35896123  0.00291861  0.09976793
   0.00389233  0.35739784  0.09977330
   0.64953824  0.64791061  0.09974715
   0.32800666  0.32640791  0.10082282
   0.68045225  0.00290931  0.10074328
   0.00391766  0.67890219  0.10072452
   0.00005974  0.49997832  0.33419025
   0.16669879  0.33346522  0.33423654
   0.00006467  0.00003034  0.33408844
   0.16681064  0.83336734  0.33424170
   0.50011835  0.50008153  0.33419644
   0.66670134  0.33336075  0.33401517
   0.50001485  0.00003686  0.33419013
   0.66660024  0.83325060  0.33423693
Direct configuration=    39
   0.00414546  0.00279520  0.10831808
   0.35897380  0.00294360  0.09976906
   0.00388273  0.35736575  0.09977419
   0.64951588  0.64788971  0.09974955
   0.32801398  0.32635632  0.10080486
   0.68047194  0.00299712  0.10072721
   0.00386190  0.67883358  0.10070873
   0.00008407  0.50003128  0.33422567
   0.16673535  0.33343768  0.33426047
   0.00005501  0.00003055  0.33413810
   0.16677574  0.83334971  0.33426480
   0.50005726  0.50006384  0.33423154
   0.66671822  0.33336522  0.33405473
   0.50002300  0.00000155  0.33422520
   0.66664631  0.83330622  0.33426048
Direct configuration=    40
   0.00415025  0.00280518  0.10826967
   0.35897657  0.00294909  0.09976930
   0.00388062  0.35735869  0.09977438
   0.64951096  0.64788511  0.09975007
   0.32801559  0.32634497  0.10080091
   0.68047628  0.00301644  0.10072367
   0.00384963  0.67881848  0.10070525
   0.00008943  0.50004293  0.33423347
   0.16674340  0.33343162  0.33426573
   0.00005289  0.00003059  0.33414903
   0.16676806  0.83334583  0.33426989
   0.50004382  0.50005995  0.33423927
   0.66672193  0.33336621  0.33406343
   0.50002479 -0.00000622  0.33423292
   0.66665645  0.83331846  0.33426567
Direct configuration=    41
   0.00414221  0.00278757  0.10820615
   0.35896163  0.00295728  0.09977346
   0.00387453  0.35734254  0.09977791
   0.64951529  0.64788870  0.09975626
   0.32805668  0.32637847  0.10078243
   0.68046297  0.00302608  0.10071218
   0.00383741  0.67879180  0.10069506
   0.00007497  0.50003525  0.33423979
   0.16673950  0.33342292  0.33427587
   0.00005297  0.00003182  0.33416757
   0.16676537  0.83335088  0.33427949
   0.50005213  0.50005380  0.33424514
   0.66672465  0.33336730  0.33408686
   0.50003274  0.00000926  0.33423895
   0.66666762  0.83332365  0.33427556
Direct configuration=    42
   0.00413142  0.00276397  0.10812096
   0.35894160  0.00296827  0.09977904
   0.00386636  0.35732089  0.09978263
   0.64952110  0.64789351  0.09976457
   0.32811178  0.32642339  0.10075765
   0.68044513  0.00303901  0.10069677
   0.00382103  0.67875603  0.10068139
   0.00005558  0.50002494  0.33424826
   0.16673428  0.33341126  0.33428946
   0.00005307  0.00003347  0.33419242
   0.16676177  0.83335764  0.33429238
   0.50006327  0.50004556  0.33425300
   0.66672829  0.33336876  0.33411828
   0.50004339  0.00003003  0.33424704
   0.66668259  0.83333061  0.33428882
Direct configuration=    43
   0.00411830  0.00273618  0.10807236
   0.35893734  0.00297343  0.09978357
   0.00386824  0.35731850  0.09978625
   0.64953644  0.64791116  0.09977214
   0.32810499  0.32643547  0.10073357
   0.68043256  0.00301840  0.10068410
   0.00383156  0.67876644  0.10067096
   0.00008648  0.50002546  0.33425247
   0.16673406  0.33344588  0.33429969
   0.00006228  0.00003338  0.33420785
   0.16678600  0.83335533  0.33430222
   0.50007315  0.50007007  0.33425668
   0.66672003  0.33336772  0.33414106
   0.50002691  0.00001024  0.33425092
   0.66664234  0.83329967  0.33429884
Direct configuration=    44
   0.00411894  0.00273754  0.10807473
   0.35893755  0.00297318  0.09978334
   0.00386815  0.35731862  0.09978607
   0.64953569  0.64791030  0.09977177
   0.32810532  0.32643488  0.10073475
   0.68043318  0.00301940  0.10068472
   0.00383104  0.67876593  0.10067147
   0.00008496  0.50002544  0.33425227
   0.16673407  0.33344419  0.33429919
   0.00006183  0.00003338  0.33420710
   0.16678481  0.83335544  0.33430173
   0.50007266  0.50006887  0.33425650
   0.66672043  0.33336777  0.33413994
   0.50002771  0.00001121  0.33425073
   0.66664431  0.83330118  0.33429835
Direct configuration=    45
   0.00411506  0.00272911  0.10805048
   0.35894909  0.00297614  0.09978447
   0.00387472  0.35732779  0.09978652
   0.64953614  0.64791529  0.09977538
   0.32806867  0.32642560  0.10071616
   0.68042750  0.00299353  0.10067657
   0.00385228  0.67878839  0.10066541
   0.00008325  0.50003327  0.33425642
   0.16674413  0.33344179  0.33430569
   0.00005784  0.00003347  0.33421571
   0.16678285  0.83335179  0.33430818
   0.50006132  0.50006378  0.33426031
   0.66672603  0.33336878  0.33415192
   0.50002898  0.00000854  0.33425467
   0.66665281  0.83331007  0.33430477
Direct configuration=    46
   0.00411138  0.00272112  0.10802748
   0.35896004  0.00297894  0.09978553
   0.00388095  0.35733649  0.09978695
   0.64953657  0.64792001  0.09977880
   0.32803390  0.32641679  0.10069852
   0.68042211  0.00296899  0.10066883
   0.00387241  0.67880969  0.10065966
   0.00008163  0.50004070  0.33426036
   0.16675367  0.33343951  0.33431186
   0.00005405  0.00003356  0.33422388
   0.16678098  0.83334833  0.33431430
   0.50005057  0.50005895  0.33426393
   0.66673134  0.33336974  0.33416328
   0.50003018  0.00000601  0.33425840
   0.66666088  0.83331849  0.33431086
Direct configuration=    47
   0.00411272  0.00272286  0.10800600
   0.35897100  0.00297993  0.09978366
   0.00388589  0.35734659  0.09978445
   0.64951871  0.64790752  0.09977921
   0.32801563  0.32642086  0.10068112
   0.68041542  0.00295050  0.10066237
   0.00389085  0.67881939  0.10065537
   0.00007848  0.50003468  0.33426689
   0.16674246  0.33343063  0.33431788
   0.00005922  0.00003492  0.33423184
   0.16677499  0.83335489  0.33432040
   0.50006255  0.50005813  0.33427018
   0.66672831  0.33337003  0.33417167
   0.50003800  0.00001561  0.33426476
   0.66666643  0.83332079  0.33431685
Direct configuration=    48
   0.00411356  0.00272394  0.10799263
   0.35897783  0.00298054  0.09978249
   0.00388896  0.35735287  0.09978289
   0.64950760  0.64789975  0.09977946
   0.32800426  0.32642340  0.10067029
   0.68041125  0.00293899  0.10065834
   0.00390233  0.67882543  0.10065270
   0.00007652  0.50003094  0.33427096
   0.16673549  0.33342510  0.33432163
   0.00006244  0.00003577  0.33423680
   0.16677126  0.83335897  0.33432420
   0.50007001  0.50005762  0.33427408
   0.66672642  0.33337022  0.33417690
   0.50004287  0.00002159  0.33426872
   0.66666989  0.83332222  0.33432058
Direct configuration=    49
   0.00411590  0.00272960  0.10797808
   0.35897896  0.00297904  0.09977722
   0.00388674  0.35735591  0.09977728
   0.64948749  0.64788121  0.09977545
   0.32802002  0.32643897  0.10066051
   0.68040788  0.00294146  0.10065603
   0.00390297  0.67881515  0.10065186
   0.00007975  0.50002762  0.33427824
   0.16673539  0.33343345  0.33432596
   0.00006332  0.00003593  0.33424174
   0.16678077  0.83336092  0.33432877
   0.50007432  0.50006408  0.33428124
   0.66672685  0.33337051  0.33417936
   0.50003711  0.00001990  0.33427596
   0.66666318  0.83331358  0.33432496
Direct configuration=    50
   0.00411904  0.00273719  0.10795858
   0.35898049  0.00297703  0.09977016
   0.00388377  0.35735998  0.09976976
   0.64946055  0.64785636  0.09977008
   0.32804113  0.32645985  0.10064739
   0.68040335  0.00294477  0.10065293
   0.00390383  0.67880136  0.10065075
   0.00008409  0.50002319  0.33428799
   0.16673526  0.33344463  0.33433175
   0.00006451  0.00003614  0.33424837
   0.16679352  0.83336354  0.33433489
   0.50008010  0.50007275  0.33429084