  16  16   0  16
  0.2041944E+02  0.5015000E-09  0.5015000E-09  0.1500000E-08  0.5000000E-15
  1.000000000000000E-004
  CAR 
 Lattice                                 
      9.31228174    -20.96324575  301     -0.25317245      1.00000000
    -20.963  0.0000E+00  0.0000E+00  0.0000E+00  0.0000E+00
    -20.862  0.0000E+00  0.0000E+00  0.0000E+00  0.0000E+00
    -20.761  0.0000E+00  0.0000E+00  0.0000E+00  0.0000E+00
    -20.660  0.0000E+00  0.0000E+00  0.0000E+00  0.0000E+00
    -20.560  0.0000E+00  0.0000E+00  0.0000E+00  0.0000E+00
    -20.459  0.0000E+00  0.0000E+00  0.0000E+00  0.0000E+00
    -20.358  0.0000E+00  0.0000E+00  0.0000E+00  0.0000E+00
    -20.257  0.0000E+00  0.0000E+00  0.0000E+00  0.0000E+00
    -20.156  0.2387E-18  0.2387E-18  0.2409E-19  0.2409E-19
    -20.055  0.1097E-13  0.1097E-13  0.1107E-14  0.1107E-14
    -19.954  0.7065E-10  0.7065E-10  0.7131E-11  0.7131E-11
    -19.853  0.6963E-07  0.6963E-07  0.7034E-08  0.7034E-08
    -19.752  0.1131E-04  0.1131E-04  0.1148E-05  0.1148E-05
    -19.651  0.3314E-03  0.3314E-03  0.3459E-04  0.3459E-04
    -19.550  0.2112E-02  0.2112E-02  0.2477E-03  0.2477E-03
    -19.449  0.4338E-02  0.4338E-02  0.6855E-03  0.6855E-03
    -19.349  0.4828E-02  0.4828E-02  0.1173E-02  0.1173E-02
    -19.248  0.5166E-02  0.5166E-02  0.1694E-02  0.1694E-02
    -19.147  0.4523E-02  0.4523E-02  0.2150E-02  0.2150E-02
    -19.046  0.5606E-02  0.5606E-02  0.2716E-02  0.2716E-02
    -18.945  0.4496E-02  0.4496E-02  0.3170E-02  0.3170E-02
    -18.844  0.4651E-02  0.4651E-02  0.3639E-02  0.3639E-02
    -18.743  0.6204E-02  0.6204E-02  0.4266E-02  0.4266E-02
    -18.642  0.4065E-02  0.4065E-02  0.4676E-02  0.4676E-02
    -18.541  0.4308E-02  0.4308E-02  0.5111E-02  0.5111E-02
    -18.440  0.6401E-02  0.6401E-02  0.5756E-02  0.5756E-02
    -18.339  0.5389E-02  0.5389E-02  0.6300E-02  0.6300E-02
    -18.238  0.3200E-02  0.3200E-02  0.6623E-02  0.6623E-02
    -18.138  0.4953E-02  0.4953E-02  0.7123E-02  0.7123E-02
    -18.037  0.7101E-02  0.7101E-02  0.7840E-02  0.7840E-02
    -17.936  0.4810E-02  0.4810E-02  0.8325E-02  0.8325E-02
    -17.835  0.3902E-02  0.3902E-02  0.8719E-02  0.8719E-02
    -17.734  0.3526E-02  0.3526E-02  0.9075E-02  0.9075E-02
    -17.633  0.7180E-02  0.7180E-02  0.9799E-02  0.9799E-02
    -17.532  0.6659E-02  0.6659E-02  0.1047E-01  0.1047E-01
    -17.431  0.3629E-02  0.3629E-02  0.1084E-01  0.1084E-01
    -17.330  0.3671E-02  0.3671E-02  0.1121E-01  0.1121E-01
    -17.229  0.4557E-02  0.4557E-02  0.1167E-01  0.1167E-01
    -17.128  0.6891E-02  0.6891E-02  0.1236E-01  0.1236E-01
    -17.027  0.6843E-02  0.6843E-02  0.1305E-01  0.1305E-01
    -16.927  0.4732E-02  0.4732E-02  0.1353E-01  0.1353E-01
    -16.826  0.2492E-02  0.2492E-02  0.1378E-01  0.1378E-01
    -16.725  0.4194E-02  0.4194E-02  0.1421E-01  0.1421E-01
    -16.624  0.7183E-02  0.7183E-02  0.1493E-01  0.1493E-01
    -16.523  0.6720E-02  0.6720E-02  0.1561E-01  0.1561E-01
    -16.422  0.5571E-02  0.5571E-02  0.1617E-01  0.1617E-01
    -16.321  0.4644E-02  0.4644E-02  0.1664E-01  0.1664E-01
    -16.220  0.3061E-02  0.3061E-02  0.1695E-01  0.1695E-01
    -16.119  0.3303E-02  0.3303E-02  0.1728E-01  0.1728E-01
    -16.018  0.1016E-01  0.1016E-01  0.1831E-01  0.1831E-01
    -15.917  0.1188E-01  0.1188E-01  0.1951E-01  0.1951E-01
    -15.816  0.1096E-01  0.1096E-01  0.2061E-01  0.2061E-01
    -15.715  0.1070E-01  0.1070E-01  0.2169E-01  0.2169E-01
    -15.615  0.1101E-01  0.1101E-01  0.2280E-01  0.2280E-01
    -15.514  0.1015E-01  0.1015E-01  0.2383E-01  0.2383E-01
    -15.413  0.1312E-01  0.1312E-01  0.2515E-01  0.2515E-01
    -15.312  0.1742E-01  0.1742E-01  0.2691E-01  0.2691E-01
    -15.211  0.1567E-01  0.1567E-01  0.2849E-01  0.2849E-01
    -15.110  0.1397E-01  0.1397E-01  0.2990E-01  0.2990E-01
    -15.009  0.1014E-01  0.1014E-01  0.3093E-01  0.3093E-01
    -14.908  0.8333E-02  0.8333E-02  0.3177E-01  0.3177E-01
    -14.807  0.6412E-02  0.6412E-02  0.3241E-01  0.3241E-01
    -14.706  0.1017E-01  0.1017E-01  0.3344E-01  0.3344E-01
    -14.605  0.1165E-01  0.1165E-01  0.3462E-01  0.3462E-01
    -14.504  0.1212E-01  0.1212E-01  0.3584E-01  0.3584E-01
    -14.404  0.1252E-01  0.1252E-01  0.3710E-01  0.3710E-01
    -14.303  0.9936E-02  0.9936E-02  0.3810E-01  0.3810E-01
    -14.202  0.9276E-02  0.9276E-02  0.3904E-01  0.3904E-01
    -14.101  0.1108E-01  0.1108E-01  0.4016E-01  0.4016E-01
    -14.000  0.1358E-01  0.1358E-01  0.4153E-01  0.4153E-01
    -13.899  0.7705E-02  0.7705E-02  0.4231E-01  0.4231E-01
    -13.798  0.3735E-02  0.3735E-02  0.4268E-01  0.4268E-01
    -13.697  0.2917E-02  0.2917E-02  0.4298E-01  0.4298E-01
    -13.596  0.6023E-02  0.6023E-02  0.4359E-01  0.4359E-01
    -13.495  0.6213E-02  0.6213E-02  0.4421E-01  0.4421E-01
    -13.394  0.6026E-02  0.6026E-02  0.4482E-01  0.4482E-01
    -13.293  0.5819E-02  0.5819E-02  0.4541E-01  0.4541E-01
    -13.193  0.7411E-02  0.7411E-02  0.4616E-01  0.4616E-01
    -13.092  0.7310E-02  0.7310E-02  0.4689E-01  0.4689E-01
    -12.991  0.6510E-02  0.6510E-02  0.4755E-01  0.4755E-01
    -12.890  0.6705E-02  0.6705E-02  0.4823E-01  0.4823E-01
    -12.789  0.8575E-02  0.8575E-02  0.4909E-01  0.4909E-01
    -12.688  0.1276E-01  0.1276E-01  0.5038E-01  0.5038E-01
    -12.587  0.1271E-01  0.1271E-01  0.5166E-01  0.5166E-01
    -12.486  0.1470E-01  0.1470E-01  0.5315E-01  0.5315E-01
    -12.385  0.1468E-01  0.1468E-01  0.5463E-01  0.5463E-01
    -12.284  0.1401E-01  0.1401E-01  0.5604E-01  0.5604E-01
    -12.183  0.1761E-01  0.1761E-01  0.5782E-01  0.5782E-01
    -12.082  0.1515E-01  0.1515E-01  0.5935E-01  0.5935E-01
    -11.982  0.1666E-01  0.1666E-01  0.6103E-01  0.6103E-01
    -11.881  0.1688E-01  0.1688E-01  0.6273E-01  0.6273E-01
    -11.780  0.1018E-01  0.1018E-01  0.6376E-01  0.6376E-01
    -11.679  0.6418E-02  0.6418E-02  0.6441E-01  0.6441E-01
    -11.578  0.5245E-02  0.5245E-02  0.6494E-01  0.6494E-01
    -11.477  0.6641E-02  0.6641E-02  0.6561E-01  0.6561E-01
    -11.376  0.5883E-02  0.5883E-02  0.6620E-01  0.6620E-01
    -11.275  0.5459E-02  0.5459E-02  0.6675E-01  0.6675E-01
    -11.174  0.4776E-02  0.4776E-02  0.6723E-01  0.6723E-01
    -11.073  0.4204E-02  0.4204E-02  0.6766E-01  0.6766E-01
    -10.972  0.5275E-02  0.5275E-02  0.6819E-01  0.6819E-01
    -10.871  0.1056E-01  0.1056E-01  0.6926E-01  0.6926E-01
    -10.770  0.1196E-01  0.1196E-01  0.7046E-01  0.7046E-01
    -10.670  0.1171E-01  0.1171E-01  0.7165E-01  0.7165E-01
    -10.569  0.1440E-01  0.1440E-01  0.7310E-01  0.7310E-01
    -10.468  0.1382E-01  0.1382E-01  0.7449E-01  0.7449E-01
    -10.367  0.1249E-01  0.1249E-01  0.7575E-01  0.7575E-01
    -10.266  0.1056E-01  0.1056E-01  0.7682E-01  0.7682E-01
    -10.165  0.9255E-02  0.9255E-02  0.7775E-01  0.7775E-01
    -10.064  0.1022E-01  0.1022E-01  0.7878E-01  0.7878E-01
     -9.963  0.6530E-02  0.6530E-02  0.7944E-01  0.7944E-01
     -9.862  0.1131E-01  0.1131E-01  0.8058E-01  0.8058E-01
     -9.761  0.1114E-01  0.1114E-01  0.8171E-01  0.8171E-01
     -9.660  0.1356E-01  0.1356E-01  0.8308E-01  0.8308E-01
     -9.559  0.1884E-01  0.1884E-01  0.8498E-01  0.8498E-01
     -9.459  0.1193E-01  0.1193E-01  0.8618E-01  0.8618E-01
     -9.358  0.1637E-01  0.1637E-01  0.8783E-01  0.8783E-01
     -9.257  0.1724E-01  0.1724E-01  0.8957E-01  0.8957E-01
     -9.156  0.1248E-01  0.1248E-01  0.9083E-01  0.9083E-01
     -9.055  0.1041E-01  0.1041E-01  0.9189E-01  0.9189E-01
     -8.954  0.1794E-01  0.1794E-01  0.9370E-01  0.9370E-01
     -8.853  0.2385E-01  0.2385E-01  0.9610E-01  0.9610E-01
     -8.752  0.1099E-01  0.1099E-01  0.9721E-01  0.9721E-01
     -8.651  0.5314E-02  0.5314E-02  0.9775E-01  0.9775E-01
     -8.550  0.1279E-01  0.1279E-01  0.9904E-01  0.9904E-01
     -8.449  0.1836E-01  0.1836E-01  0.1009E+00  0.1009E+00
     -8.348  0.1587E-01  0.1587E-01  0.1025E+00  0.1025E+00
     -8.248  0.1525E-01  0.1525E-01  0.1040E+00  0.1040E+00
     -8.147  0.1299E-01  0.1299E-01  0.1053E+00  0.1053E+00
     -8.046  0.9852E-02  0.9852E-02  0.1063E+00  0.1063E+00
     -7.945  0.1238E-01  0.1238E-01  0.1076E+00  0.1076E+00
     -7.844  0.1780E-01  0.1780E-01  0.1094E+00  0.1094E+00
     -7.743  0.2318E-01  0.2318E-01  0.1117E+00  0.1117E+00
     -7.642  0.1766E-01  0.1766E-01  0.1135E+00  0.1135E+00
     -7.541  0.1396E-01  0.1396E-01  0.1149E+00  0.1149E+00
     -7.440  0.1319E-01  0.1319E-01  0.1162E+00  0.1162E+00
     -7.339  0.1498E-01  0.1498E-01  0.1178E+00  0.1178E+00
     -7.238  0.2153E-01  0.2153E-01  0.1199E+00  0.1199E+00
     -7.137  0.1616E-01  0.1616E-01  0.1216E+00  0.1216E+00
     -7.037  0.1723E-01  0.1723E-01  0.1233E+00  0.1233E+00
     -6.936  0.2039E-01  0.2039E-01  0.1254E+00  0.1254E+00
     -6.835  0.2205E-01  0.2205E-01  0.1276E+00  0.1276E+00
     -6.734  0.2531E-01  0.2531E-01  0.1301E+00  0.1301E+00
     -6.633  0.3211E-01  0.3211E-01  0.1334E+00  0.1334E+00
     -6.532  0.3655E-01  0.3655E-01  0.1371E+00  0.1371E+00
     -6.431  0.2398E-01  0.2398E-01  0.1395E+00  0.1395E+00
     -6.330  0.1654E-01  0.1654E-01  0.1412E+00  0.1412E+00
     -6.229  0.1770E-01  0.1770E-01  0.1429E+00  0.1429E+00
     -6.128  0.1776E-01  0.1776E-01  0.1447E+00  0.1447E+00
     -6.027  0.1845E-01  0.1845E-01  0.1466E+00  0.1466E+00
     -5.926  0.1573E-01  0.1573E-01  0.1482E+00  0.1482E+00
     -5.825  0.1531E-01  0.1531E-01  0.1497E+00  0.1497E+00
     -5.725  0.1864E-01  0.1864E-01  0.1516E+00  0.1516E+00
     -5.624  0.1557E-01  0.1557E-01  0.1532E+00  0.1532E+00
     -5.523  0.9916E-02  0.9916E-02  0.1542E+00  0.1542E+00
     -5.422  0.1288E-01  0.1288E-01  0.1555E+00  0.1555E+00
     -5.321  0.1899E-01  0.1899E-01  0.1574E+00  0.1574E+00
     -5.220  0.1822E-01  0.1822E-01  0.1592E+00  0.1592E+00
     -5.119  0.1279E-01  0.1279E-01  0.1605E+00  0.1605E+00
     -5.018  0.1455E-01  0.1455E-01  0.1620E+00  0.1620E+00
     -4.917  0.2178E-01  0.2178E-01  0.1642E+00  0.1642E+00
     -4.816  0.1468E-01  0.1468E-01  0.1657E+00  0.1657E+00
     -4.715  0.7411E-02  0.7411E-02  0.1664E+00  0.1664E+00
     -4.614  0.1519E-01  0.1519E-01  0.1680E+00  0.1680E+00
     -4.514  0.2054E-01  0.2054E-01  0.1700E+00  0.1700E+00
     -4.413  0.1913E-01  0.1913E-01  0.1720E+00  0.1720E+00
     -4.312  0.2195E-01  0.2195E-01  0.1742E+00  0.1742E+00
     -4.211  0.2225E-01  0.2225E-01  0.1764E+00  0.1764E+00
     -4.110  0.2174E-01  0.2174E-01  0.1786E+00  0.1786E+00
     -4.009  0.2305E-01  0.2305E-01  0.1809E+00  0.1809E+00
     -3.908  0.2767E-01  0.2767E-01  0.1837E+00  0.1837E+00
     -3.807  0.2856E-01  0.2856E-01  0.1866E+00  0.1866E+00
     -3.706  0.2082E-01  0.2082E-01  0.1887E+00  0.1887E+00
     -3.605  0.1974E-01  0.1974E-01  0.1907E+00  0.1907E+00
     -3.504  0.1702E-01  0.1702E-01  0.1924E+00  0.1924E+00
     -3.403  0.1411E-01  0.1411E-01  0.1939E+00  0.1939E+00
     -3.303  0.7986E-02  0.7986E-02  0.1947E+00  0.1947E+00
     -3.202  0.7079E-02  0.7079E-02  0.1954E+00  0.1954E+00
     -3.101  0.1274E-01  0.1274E-01  0.1967E+00  0.1967E+00
     -3.000  0.1663E-01  0.1663E-01  0.1983E+00  0.1983E+00
     -2.899  0.1344E-01  0.1344E-01  0.1997E+00  0.1997E+00
     -2.798  0.1227E-01  0.1227E-01  0.2009E+00  0.2009E+00
     -2.697  0.1125E-01  0.1125E-01  0.2021E+00  0.2021E+00
     -2.596  0.1076E-01  0.1076E-01  0.2032E+00  0.2032E+00
     -2.495  0.1418E-01  0.1418E-01  0.2046E+00  0.2046E+00
     -2.394  0.1509E-01  0.1509E-01  0.2061E+00  0.2061E+00
     -2.293  0.9391E-02  0.9391E-02  0.2071E+00  0.2071E+00
     -2.192  0.1162E-01  0.1162E-01  0.2082E+00  0.2082E+00
     -2.092  0.9069E-02  0.9069E-02  0.2091E+00  0.2091E+00
     -1.991  0.5474E-02  0.5474E-02  0.2097E+00  0.2097E+00
     -1.890  0.5472E-02  0.5472E-02  0.2102E+00  0.2102E+00
     -1.789  0.8552E-02  0.8552E-02  0.2111E+00  0.2111E+00
     -1.688  0.9017E-02  0.9017E-02  0.2120E+00  0.2120E+00
     -1.587  0.8909E-02  0.8909E-02  0.2129E+00  0.2129E+00
     -1.486  0.8646E-02  0.8646E-02  0.2138E+00  0.2138E+00
     -1.385  0.5262E-02  0.5262E-02  0.2143E+00  0.2143E+00
     -1.284  0.4968E-02  0.4968E-02  0.2148E+00  0.2148E+00
     -1.183  0.5633E-02  0.5633E-02  0.2154E+00  0.2154E+00
     -1.082  0.7188E-02  0.7188E-02  0.2161E+00  0.2161E+00
     -0.981  0.6925E-02  0.6925E-02  0.2168E+00  0.2168E+00
     -0.880  0.4337E-02  0.4337E-02  0.2173E+00  0.2173E+00
     -0.780  0.2354E-02  0.2354E-02  0.2175E+00  0.2175E+00
     -0.679  0.9361E-03  0.9361E-03  0.2176E+00  0.2176E+00
     -0.578  0.2284E-02  0.2284E-02  0.2178E+00  0.2178E+00
     -0.477  0.4107E-02  0.4107E-02  0.2182E+00  0.2182E+00
     -0.376  0.2191E-02  0.2191E-02  0.2185E+00  0.2185E+00
     -0.275  0.2214E-02  0.2214E-02  0.2187E+00  0.2187E+00
     -0.174  0.4137E-02  0.4137E-02  0.2191E+00  0.2191E+00
     -0.073  0.4423E-02  0.4423E-02  0.2195E+00  0.2195E+00
      0.028  0.3460E-02  0.3460E-02  0.2199E+00  0.2199E+00
      0.129  0.5734E-02  0.5734E-02  0.2205E+00  0.2205E+00
      0.230  0.9934E-02  0.9934E-02  0.2215E+00  0.2215E+00
      0.331  0.1178E-01  0.1178E-01  0.2227E+00  0.2227E+00
      0.431  0.1094E-01  0.1094E-01  0.2238E+00  0.2238E+00
      0.532  0.7394E-02  0.7394E-02  0.2245E+00  0.2245E+00
      0.633  0.5218E-02  0.5218E-02  0.2250E+00  0.2250E+00
      0.734  0.9866E-02  0.9866E-02  0.2260E+00  0.2260E+00
      0.835  0.8958E-02  0.8958E-02  0.2269E+00  0.2269E+00
      0.936  0.4707E-02  0.4707E-02  0.2274E+00  0.2274E+00
      1.037  0.5662E-02  0.5662E-02  0.2280E+00  0.2280E+00
      1.138  0.1307E-01  0.1307E-01  0.2293E+00  0.2293E+00
      1.239  0.1743E-01  0.1743E-01  0.2311E+00  0.2311E+00
      1.340  0.1677E-01  0.1677E-01  0.2328E+00  0.2328E+00
      1.441  0.1426E-01  0.1426E-01  0.2342E+00  0.2342E+00
      1.542  0.8300E-02  0.8300E-02  0.2350E+00  0.2350E+00
      1.642  0.9810E-02  0.9810E-02  0.2360E+00  0.2360E+00
      1.743  0.1032E-01  0.1032E-01  0.2371E+00  0.2371E+00
      1.844  0.8425E-02  0.8425E-02  0.2379E+00  0.2379E+00
      1.945  0.1333E-01  0.1333E-01  0.2393E+00  0.2393E+00
      2.046  0.1618E-01  0.1618E-01  0.2409E+00  0.2409E+00
      2.147  0.1362E-01  0.1362E-01  0.2423E+00  0.2423E+00
      2.248  0.8194E-02  0.8194E-02  0.2431E+00  0.2431E+00
      2.349  0.4436E-02  0.4436E-02  0.2435E+00  0.2435E+00
      2.450  0.8469E-02  0.8469E-02  0.2444E+00  0.2444E+00
      2.551  0.1138E-01  0.1138E-01  0.2455E+00  0.2455E+00
      2.652  0.1484E-01  0.1484E-01  0.2470E+00  0.2470E+00
      2.753  0.1679E-01  0.1679E-01  0.2487E+00  0.2487E+00
      2.854  0.1505E-01  0.1505E-01  0.2502E+00  0.2502E+00
      2.954  0.1258E-01  0.1258E-01  0.2515E+00  0.2515E+00
      3.055  0.1318E-01  0.1318E-01  0.2528E+00  0.2528E+00
      3.156  0.1240E-01  0.1240E-01  0.2541E+00  0.2541E+00
      3.257  0.1863E-01  0.1863E-01  0.2560E+00  0.2560E+00
      3.358  0.2114E-01  0.2114E-01  0.2581E+00  0.2581E+00
      3.459  0.1712E-01  0.1712E-01  0.2598E+00  0.2598E+00
      3.560  0.2131E-01  0.2131E-01  0.2620E+00  0.2620E+00
      3.661  0.2483E-01  0.2483E-01  0.2645E+00  0.2645E+00
      3.762  0.2529E-01  0.2529E-01  0.2671E+00  0.2671E+00
      3.863  0.1982E-01  0.1982E-01  0.2691E+00  0.2691E+00
      3.964  0.1744E-01  0.1744E-01  0.2708E+00  0.2708E+00
      4.065  0.1945E-01  0.1945E-01  0.2728E+00  0.2728E+00
      4.165  0.1817E-01  0.1817E-01  0.2746E+00  0.2746E+00
      4.266  0.2072E-01  0.2072E-01  0.2767E+00  0.2767E+00
      4.367  0.2485E-01  0.2485E-01  0.2792E+00  0.2792E+00
      4.468  0.1881E-01  0.1881E-01  0.2811E+00  0.2811E+00
      4.569  0.2081E-01  0.2081E-01  0.2832E+00  0.2832E+00
      4.670  0.2505E-01  0.2505E-01  0.2857E+00  0.2857E+00
      4.771  0.3066E-01  0.3066E-01  0.2888E+00  0.2888E+00
      4.872  0.2710E-01  0.2710E-01  0.2916E+00  0.2916E+00
      4.973  0.1684E-01  0.1684E-01  0.2933E+00  0.2933E+00
      5.074  0.2157E-01  0.2157E-01  0.2954E+00  0.2954E+00
      5.175  0.2560E-01  0.2560E-01  0.2980E+00  0.2980E+00
      5.276  0.2436E-01  0.2436E-01  0.3005E+00  0.3005E+00
      5.376  0.2458E-01  0.2458E-01  0.3030E+00  0.3030E+00
      5.477  0.2844E-01  0.2843E-01  0.3058E+00  0.3058E+00
      5.578  0.3021E-01  0.3021E-01  0.3089E+00  0.3089E+00
      5.679  0.2892E-01  0.2892E-01  0.3118E+00  0.3118E+00
      5.780  0.2626E-01  0.2626E-01  0.3144E+00  0.3144E+00
      5.881  0.1472E-01  0.1472E-01  0.3159E+00  0.3159E+00
      5.982  0.1759E-01  0.1759E-01  0.3177E+00  0.3177E+00
      6.083  0.2767E-01  0.2767E-01  0.3205E+00  0.3205E+00
      6.184  0.2943E-01  0.2943E-01  0.3235E+00  0.3235E+00
      6.285  0.3115E-01  0.3115E-01  0.3266E+00  0.3266E+00
      6.386  0.3107E-01  0.3106E-01  0.3297E+00  0.3297E+00
      6.487  0.2438E-01  0.2438E-01  0.3322E+00  0.3322E+00
      6.587  0.2221E-01  0.2222E-01  0.3345E+00  0.3345E+00
      6.688  0.3169E-01  0.3169E-01  0.3376E+00  0.3376E+00
      6.789  0.2807E-01  0.2807E-01  0.3405E+00  0.3405E+00
      6.890  0.3042E-01  0.3042E-01  0.3436E+00  0.3436E+00
      6.991  0.3836E-01  0.3836E-01  0.3474E+00  0.3474E+00
      7.092  0.3501E-01  0.3501E-01  0.3510E+00  0.3510E+00
      7.193  0.3363E-01  0.3363E-01  0.3543E+00  0.3544E+00
      7.294  0.3329E-01  0.3329E-01  0.3577E+00  0.3577E+00
      7.395  0.2773E-01  0.2773E-01  0.3605E+00  0.3605E+00
      7.496  0.3315E-01  0.3315E-01  0.3639E+00  0.3639E+00
      7.597  0.3465E-01  0.3465E-01  0.3673E+00  0.3674E+00
      7.698  0.2717E-01  0.2717E-01  0.3701E+00  0.3701E+00
      7.799  0.2196E-01  0.2196E-01  0.3723E+00  0.3723E+00
      7.899  0.1521E-01  0.1521E-01  0.3738E+00  0.3738E+00
      8.000  0.9384E-02  0.9383E-02  0.3748E+00  0.3748E+00
      8.101  0.1998E-02  0.1998E-02  0.3750E+00  0.3750E+00
      8.202  0.8445E-04  0.8440E-04  0.3750E+00  0.3750E+00
      8.303  0.5904E-06  0.5898E-06  0.3750E+00  0.3750E+00
      8.404  0.6239E-09  0.6229E-09  0.3750E+00  0.3750E+00
      8.505  0.9483E-13  0.9463E-13  0.3750E+00  0.3750E+00
      8.606  0.1791E-17  0.1791E-17  0.3750E+00  0.3750E+00
      8.707  0.0000E+00  0.0000E+00  0.3750E+00  0.3750E+00
      8.808  0.0000E+00  0.0000E+00  0.3750E+00  0.3750E+00
      8.909  0.0000E+00  0.0000E+00  0.3750E+00  0.3750E+00
      9.010  0.0000E+00  0.0000E+00  0.3750E+00  0.3750E+00
      9.110  0.0000E+00  0.0000E+00  0.3750E+00  0.3750E+00
      9.211  0.0000E+00  0.0000E+00  0.3750E+00  0.3750E+00
      9.312  0.0000E+00  0.0000E+00  0.3750E+00  0.3750E+00
