  15  15   0   4
  0.1995323E+02  0.4800000E-09  0.4800000E-09  0.1500000E-08  0.5000000E-15
  1.000000000000000E-004
  CAR 
 Lattice                                 
     14.68790847    -18.66365603  301      2.77469482      1.00000000
    -18.664  0.0000E+00  0.0000E+00  0.0000E+00  0.0000E+00
    -18.552  0.0000E+00  0.0000E+00  0.0000E+00  0.0000E+00
    -18.441  0.0000E+00  0.0000E+00  0.0000E+00  0.0000E+00
    -18.330  0.0000E+00  0.0000E+00  0.0000E+00  0.0000E+00
    -18.219  0.0000E+00  0.0000E+00  0.0000E+00  0.0000E+00
    -18.108  0.0000E+00  0.0000E+00  0.0000E+00  0.0000E+00
    -17.997  0.0000E+00  0.0000E+00  0.0000E+00  0.0000E+00
    -17.885  0.0000E+00  0.0000E+00  0.0000E+00  0.0000E+00
    -17.774  0.0000E+00  0.0000E+00  0.0000E+00  0.0000E+00
    -17.663  0.8051E-16  0.8051E-16  0.8951E-17  0.8951E-17
    -17.552  0.3036E-11  0.3036E-11  0.3375E-12  0.3375E-12
    -17.441  0.1136E-07  0.1136E-07  0.1264E-08  0.1264E-08
    -17.330  0.4687E-05  0.4687E-05  0.5224E-06  0.5224E-06
    -17.218  0.2418E-03  0.2418E-03  0.2740E-04  0.2740E-04
    -17.107  0.1959E-02  0.1959E-02  0.2451E-03  0.2451E-03
    -16.996  0.4180E-02  0.4180E-02  0.7099E-03  0.7099E-03
    -16.885  0.4534E-02  0.4534E-02  0.1214E-02  0.1214E-02
    -16.774  0.4885E-02  0.4885E-02  0.1757E-02  0.1757E-02
    -16.663  0.4203E-02  0.4203E-02  0.2224E-02  0.2224E-02
    -16.551  0.5432E-02  0.5432E-02  0.2828E-02  0.2828E-02
    -16.440  0.3856E-02  0.3856E-02  0.3257E-02  0.3257E-02
    -16.329  0.4885E-02  0.4885E-02  0.3800E-02  0.3800E-02
    -16.218  0.5649E-02  0.5649E-02  0.4428E-02  0.4428E-02
    -16.107  0.3221E-02  0.3221E-02  0.4786E-02  0.4786E-02
    -15.996  0.4968E-02  0.4968E-02  0.5338E-02  0.5338E-02
    -15.884  0.6007E-02  0.6007E-02  0.6006E-02  0.6006E-02
    -15.773  0.4161E-02  0.4161E-02  0.6469E-02  0.6469E-02
    -15.662  0.2902E-02  0.2902E-02  0.6791E-02  0.6791E-02
    -15.551  0.6426E-02  0.6426E-02  0.7506E-02  0.7506E-02
    -15.440  0.5631E-02  0.5631E-02  0.8132E-02  0.8132E-02
    -15.328  0.3932E-02  0.3932E-02  0.8569E-02  0.8569E-02
    -15.217  0.2987E-02  0.2987E-02  0.8901E-02  0.8901E-02
    -15.106  0.5422E-02  0.5422E-02  0.9504E-02  0.9504E-02
    -14.995  0.7157E-02  0.7157E-02  0.1030E-01  0.1030E-01
    -14.884  0.4085E-02  0.4085E-02  0.1075E-01  0.1075E-01
    -14.773  0.3072E-02  0.3072E-02  0.1109E-01  0.1109E-01
    -14.661  0.4042E-02  0.4042E-02  0.1154E-01  0.1154E-01
    -14.550  0.5979E-02  0.5979E-02  0.1221E-01  0.1221E-01
    -14.439  0.6807E-02  0.6807E-02  0.1297E-01  0.1297E-01
    -14.328  0.5557E-02  0.5557E-02  0.1358E-01  0.1358E-01
    -14.217  0.6581E-02  0.6581E-02  0.1432E-01  0.1432E-01
    -14.106  0.1060E-01  0.1060E-01  0.1549E-01  0.1549E-01
    -13.994  0.1482E-01  0.1482E-01  0.1714E-01  0.1714E-01
    -13.883  0.1560E-01  0.1560E-01  0.1888E-01  0.1888E-01
    -13.772  0.1764E-01  0.1764E-01  0.2084E-01  0.2084E-01
    -13.661  0.2100E-01  0.2100E-01  0.2317E-01  0.2317E-01
    -13.550  0.1282E-01  0.1282E-01  0.2460E-01  0.2460E-01
    -13.439  0.4507E-02  0.4507E-02  0.2510E-01  0.2510E-01
    -13.327  0.8773E-02  0.8773E-02  0.2607E-01  0.2607E-01
    -13.216  0.6309E-02  0.6309E-02  0.2677E-01  0.2677E-01
    -13.105  0.4347E-02  0.4347E-02  0.2726E-01  0.2726E-01
    -12.994  0.3811E-02  0.3811E-02  0.2768E-01  0.2768E-01
    -12.883  0.4117E-02  0.4117E-02  0.2814E-01  0.2814E-01
    -12.772  0.3159E-02  0.3159E-02  0.2849E-01  0.2849E-01
    -12.660  0.6245E-02  0.6245E-02  0.2918E-01  0.2918E-01
    -12.549  0.8968E-02  0.8968E-02  0.3018E-01  0.3018E-01
    -12.438  0.4874E-02  0.4874E-02  0.3072E-01  0.3072E-01
    -12.327  0.3819E-02  0.3819E-02  0.3115E-01  0.3115E-01
    -12.216  0.3372E-02  0.3372E-02  0.3152E-01  0.3152E-01
    -12.105  0.4319E-02  0.4319E-02  0.3200E-01  0.3200E-01
    -11.993  0.5830E-02  0.5830E-02  0.3265E-01  0.3265E-01
    -11.882  0.9947E-02  0.9947E-02  0.3376E-01  0.3376E-01
    -11.771  0.1644E-01  0.1644E-01  0.3558E-01  0.3558E-01
    -11.660  0.1820E-01  0.1820E-01  0.3761E-01  0.3761E-01
    -11.549  0.1727E-01  0.1727E-01  0.3953E-01  0.3953E-01
    -11.437  0.1082E-01  0.1082E-01  0.4073E-01  0.4073E-01
    -11.326  0.7946E-02  0.7946E-02  0.4161E-01  0.4161E-01
    -11.215  0.1551E-01  0.1551E-01  0.4334E-01  0.4334E-01
    -11.104  0.1451E-01  0.1451E-01  0.4495E-01  0.4495E-01
    -10.993  0.1085E-01  0.1085E-01  0.4616E-01  0.4616E-01
    -10.882  0.1054E-01  0.1054E-01  0.4733E-01  0.4733E-01
    -10.770  0.1415E-01  0.1415E-01  0.4890E-01  0.4890E-01
    -10.659  0.2059E-01  0.2059E-01  0.5119E-01  0.5119E-01
    -10.548  0.1943E-01  0.1943E-01  0.5335E-01  0.5335E-01
    -10.437  0.1591E-01  0.1591E-01  0.5512E-01  0.5512E-01
    -10.326  0.9078E-02  0.9078E-02  0.5613E-01  0.5613E-01
    -10.215  0.4941E-02  0.4941E-02  0.5668E-01  0.5668E-01
    -10.103  0.3134E-02  0.3134E-02  0.5703E-01  0.5703E-01
     -9.992  0.5713E-02  0.5713E-02  0.5766E-01  0.5766E-01
     -9.881  0.7467E-02  0.7467E-02  0.5849E-01  0.5849E-01
     -9.770  0.5106E-02  0.5106E-02  0.5906E-01  0.5906E-01
     -9.659  0.6017E-02  0.6017E-02  0.5973E-01  0.5973E-01
     -9.548  0.7318E-02  0.7318E-02  0.6054E-01  0.6054E-01
     -9.436  0.5728E-02  0.5728E-02  0.6118E-01  0.6118E-01
     -9.325  0.5541E-02  0.5541E-02  0.6180E-01  0.6180E-01
     -9.214  0.3530E-02  0.3530E-02  0.6219E-01  0.6219E-01
     -9.103  0.5846E-02  0.5846E-02  0.6284E-01  0.6284E-01
     -8.992  0.8113E-02  0.8113E-02  0.6374E-01  0.6374E-01
     -8.881  0.3466E-02  0.3466E-02  0.6412E-01  0.6412E-01
     -8.769  0.3381E-02  0.3381E-02  0.6450E-01  0.6450E-01
     -8.658  0.3425E-02  0.3425E-02  0.6488E-01  0.6488E-01
     -8.547  0.6251E-02  0.6251E-02  0.6558E-01  0.6558E-01
     -8.436  0.6461E-02  0.6461E-02  0.6629E-01  0.6629E-01
     -8.325  0.3187E-02  0.3187E-02  0.6665E-01  0.6665E-01
     -8.213  0.2257E-02  0.2257E-02  0.6690E-01  0.6690E-01
     -8.102  0.5354E-02  0.5354E-02  0.6750E-01  0.6750E-01
     -7.991  0.5648E-02  0.5648E-02  0.6812E-01  0.6812E-01
     -7.880  0.5596E-02  0.5596E-02  0.6875E-01  0.6875E-01
     -7.769  0.8338E-02  0.8338E-02  0.6967E-01  0.6967E-01
     -7.658  0.3503E-02  0.3503E-02  0.7006E-01  0.7006E-01
     -7.546  0.4607E-02  0.4607E-02  0.7057E-01  0.7057E-01
     -7.435  0.1083E-01  0.1083E-01  0.7178E-01  0.7178E-01
     -7.324  0.1470E-01  0.1470E-01  0.7341E-01  0.7341E-01
     -7.213  0.1521E-01  0.1521E-01  0.7510E-01  0.7510E-01
     -7.102  0.1466E-01  0.1466E-01  0.7673E-01  0.7673E-01
     -6.991  0.1629E-01  0.1629E-01  0.7854E-01  0.7854E-01
     -6.879  0.1935E-01  0.1935E-01  0.8069E-01  0.8069E-01
     -6.768  0.1184E-01  0.1184E-01  0.8201E-01  0.8201E-01
     -6.657  0.6412E-02  0.6412E-02  0.8272E-01  0.8272E-01
     -6.546  0.1324E-01  0.1324E-01  0.8420E-01  0.8420E-01
     -6.435  0.1528E-01  0.1528E-01  0.8589E-01  0.8589E-01
     -6.324  0.1630E-01  0.1630E-01  0.8771E-01  0.8771E-01
     -6.212  0.1569E-01  0.1569E-01  0.8945E-01  0.8945E-01
     -6.101  0.1404E-01  0.1404E-01  0.9101E-01  0.9101E-01
     -5.990  0.1012E-01  0.1012E-01  0.9214E-01  0.9214E-01
     -5.879  0.7792E-02  0.7792E-02  0.9300E-01  0.9300E-01
     -5.768  0.1661E-01  0.1661E-01  0.9485E-01  0.9485E-01
     -5.657  0.2064E-01  0.2064E-01  0.9714E-01  0.9714E-01
     -5.545  0.1316E-01  0.1316E-01  0.9861E-01  0.9861E-01
     -5.434  0.7351E-02  0.7351E-02  0.9942E-01  0.9942E-01
     -5.323  0.1370E-01  0.1370E-01  0.1009E+00  0.1009E+00
     -5.212  0.2265E-01  0.2265E-01  0.1035E+00  0.1035E+00
     -5.101  0.1557E-01  0.1557E-01  0.1052E+00  0.1052E+00
     -4.990  0.1183E-01  0.1183E-01  0.1065E+00  0.1065E+00
     -4.878  0.2156E-01  0.2156E-01  0.1089E+00  0.1089E+00
     -4.767  0.2484E-01  0.2484E-01  0.1117E+00  0.1117E+00
     -4.656  0.2345E-01  0.2345E-01  0.1143E+00  0.1143E+00
     -4.545  0.1408E-01  0.1408E-01  0.1158E+00  0.1158E+00
     -4.434  0.6955E-02  0.6955E-02  0.1166E+00  0.1166E+00
     -4.322  0.1598E-01  0.1598E-01  0.1184E+00  0.1184E+00
     -4.211  0.1929E-01  0.1929E-01  0.1205E+00  0.1205E+00
     -4.100  0.1237E-01  0.1237E-01  0.1219E+00  0.1219E+00
     -3.989  0.1115E-01  0.1115E-01  0.1231E+00  0.1231E+00
     -3.878  0.1653E-01  0.1653E-01  0.1250E+00  0.1250E+00
     -3.767  0.1771E-01  0.1771E-01  0.1270E+00  0.1270E+00
     -3.655  0.1877E-01  0.1877E-01  0.1290E+00  0.1290E+00
     -3.544  0.2076E-01  0.2076E-01  0.1313E+00  0.1313E+00
     -3.433  0.1933E-01  0.1933E-01  0.1335E+00  0.1335E+00
     -3.322  0.1953E-01  0.1953E-01  0.1357E+00  0.1357E+00
     -3.211  0.1665E-01  0.1665E-01  0.1375E+00  0.1375E+00
     -3.100  0.1951E-01  0.1951E-01  0.1397E+00  0.1397E+00
     -2.988  0.2600E-01  0.2600E-01  0.1426E+00  0.1426E+00
     -2.877  0.2415E-01  0.2415E-01  0.1453E+00  0.1453E+00
     -2.766  0.3319E-01  0.3319E-01  0.1490E+00  0.1490E+00
     -2.655  0.2352E-01  0.2352E-01  0.1516E+00  0.1516E+00
     -2.544  0.1446E-01  0.1446E-01  0.1532E+00  0.1532E+00
     -2.433  0.2192E-01  0.2192E-01  0.1556E+00  0.1556E+00
     -2.321  0.3808E-01  0.3808E-01  0.1598E+00  0.1598E+00
     -2.210  0.3114E-01  0.3114E-01  0.1633E+00  0.1633E+00
     -2.099  0.1887E-01  0.1887E-01  0.1654E+00  0.1654E+00
     -1.988  0.1403E-01  0.1403E-01  0.1670E+00  0.1670E+00
     -1.877  0.9409E-02  0.9409E-02  0.1680E+00  0.1680E+00
     -1.766  0.1314E-01  0.1314E-01  0.1695E+00  0.1695E+00
     -1.654  0.1332E-01  0.1332E-01  0.1710E+00  0.1710E+00
     -1.543  0.8575E-02  0.8575E-02  0.1719E+00  0.1719E+00
     -1.432  0.8427E-02  0.8427E-02  0.1728E+00  0.1728E+00
     -1.321  0.1390E-01  0.1390E-01  0.1744E+00  0.1744E+00
     -1.210  0.2216E-01  0.2216E-01  0.1769E+00  0.1769E+00
     -1.098  0.1870E-01  0.1870E-01  0.1789E+00  0.1789E+00
     -0.987  0.1909E-01  0.1909E-01  0.1811E+00  0.1811E+00
     -0.876  0.2202E-01  0.2202E-01  0.1835E+00  0.1835E+00
     -0.765  0.2364E-01  0.2364E-01  0.1861E+00  0.1861E+00
     -0.654  0.1818E-01  0.1818E-01  0.1882E+00  0.1882E+00
     -0.543  0.1795E-01  0.1795E-01  0.1901E+00  0.1901E+00
     -0.431  0.2009E-01  0.2009E-01  0.1924E+00  0.1924E+00
     -0.320  0.1515E-01  0.1515E-01  0.1941E+00  0.1941E+00
     -0.209  0.1405E-01  0.1405E-01  0.1956E+00  0.1956E+00
     -0.098  0.1399E-01  0.1399E-01  0.1972E+00  0.1972E+00
      0.013  0.1817E-01  0.1817E-01  0.1992E+00  0.1992E+00
      0.124  0.1632E-01  0.1632E-01  0.2010E+00  0.2010E+00
      0.236  0.1126E-01  0.1126E-01  0.2023E+00  0.2023E+00
      0.347  0.1069E-01  0.1069E-01  0.2035E+00  0.2035E+00
      0.458  0.6945E-02  0.6945E-02  0.2042E+00  0.2042E+00
      0.569  0.1597E-01  0.1597E-01  0.2060E+00  0.2060E+00
      0.680  0.1867E-01  0.1867E-01  0.2081E+00  0.2081E+00
      0.791  0.7030E-02  0.7030E-02  0.2089E+00  0.2089E+00
      0.903  0.3184E-02  0.3184E-02  0.2092E+00  0.2092E+00
      1.014  0.8691E-02  0.8691E-02  0.2102E+00  0.2102E+00
      1.125  0.1077E-01  0.1077E-01  0.2114E+00  0.2114E+00
      1.236  0.1083E-01  0.1083E-01  0.2126E+00  0.2126E+00
      1.347  0.1171E-01  0.1171E-01  0.2139E+00  0.2139E+00
      1.458  0.1008E-01  0.1008E-01  0.2150E+00  0.2150E+00
      1.570  0.7430E-02  0.7430E-02  0.2158E+00  0.2158E+00
      1.681  0.4616E-02  0.4616E-02  0.2163E+00  0.2163E+00
      1.792  0.4072E-02  0.4072E-02  0.2168E+00  0.2168E+00
      1.903  0.4019E-02  0.4019E-02  0.2172E+00  0.2172E+00
      2.014  0.4077E-02  0.4077E-02  0.2177E+00  0.2177E+00
      2.125  0.5722E-02  0.5722E-02  0.2183E+00  0.2183E+00
      2.237  0.2359E-02  0.2359E-02  0.2186E+00  0.2186E+00
      2.348  0.3829E-03  0.3829E-03  0.2186E+00  0.2186E+00
      2.459  0.2219E-04  0.2219E-04  0.2186E+00  0.2186E+00
      2.570  0.4408E-05  0.4408E-05  0.2186E+00  0.2186E+00
      2.681  0.1844E-03  0.1844E-03  0.2187E+00  0.2187E+00
      2.793  0.9788E-03  0.9788E-03  0.2188E+00  0.2188E+00
      2.904  0.7141E-03  0.7141E-03  0.2189E+00  0.2189E+00
      3.015  0.6968E-04  0.6968E-04  0.2189E+00  0.2189E+00
      3.126  0.7974E-06  0.7974E-06  0.2189E+00  0.2189E+00
      3.237  0.4743E-05  0.4743E-05  0.2189E+00  0.2189E+00
      3.348  0.3249E-03  0.3249E-03  0.2189E+00  0.2189E+00
      3.460  0.2548E-02  0.2548E-02  0.2192E+00  0.2192E+00
      3.571  0.2641E-02  0.2641E-02  0.2195E+00  0.2195E+00
      3.682  0.9281E-03  0.9281E-03  0.2196E+00  0.2196E+00
      3.793  0.2716E-02  0.2716E-02  0.2199E+00  0.2199E+00
      3.904  0.5070E-02  0.5070E-02  0.2204E+00  0.2204E+00
      4.015  0.8770E-02  0.8770E-02  0.2214E+00  0.2214E+00
      4.127  0.2435E-01  0.2435E-01  0.2241E+00  0.2241E+00
      4.238  0.2151E-01  0.2151E-01  0.2265E+00  0.2265E+00
      4.349  0.4808E-02  0.4808E-02  0.2270E+00  0.2270E+00
      4.460  0.3725E-02  0.3725E-02  0.2275E+00  0.2275E+00
      4.571  0.8163E-02  0.8163E-02  0.2284E+00  0.2284E+00
      4.682  0.1260E-01  0.1260E-01  0.2298E+00  0.2298E+00
      4.794  0.1918E-01  0.1918E-01  0.2319E+00  0.2319E+00
      4.905  0.1447E-01  0.1447E-01  0.2335E+00  0.2335E+00
      5.016  0.6343E-02  0.6343E-02  0.2342E+00  0.2342E+00
      5.127  0.7793E-02  0.7793E-02  0.2351E+00  0.2351E+00
      5.238  0.9630E-02  0.9630E-02  0.2362E+00  0.2362E+00
      5.349  0.7206E-02  0.7206E-02  0.2370E+00  0.2370E+00
      5.461  0.9812E-02  0.9812E-02  0.2380E+00  0.2380E+00
      5.572  0.7673E-02  0.7673E-02  0.2389E+00  0.2389E+00
      5.683  0.1059E-01  0.1059E-01  0.2401E+00  0.2401E+00
      5.794  0.1032E-01  0.1032E-01  0.2412E+00  0.2412E+00
      5.905  0.8302E-02  0.8303E-02  0.2421E+00  0.2421E+00
      6.017  0.9508E-02  0.9508E-02  0.2432E+00  0.2432E+00
      6.128  0.1134E-01  0.1134E-01  0.2445E+00  0.2445E+00
      6.239  0.9639E-02  0.9638E-02  0.2455E+00  0.2455E+00
      6.350  0.9864E-02  0.9865E-02  0.2466E+00  0.2466E+00
      6.461  0.1072E-01  0.1072E-01  0.2478E+00  0.2478E+00
      6.572  0.1034E-01  0.1034E-01  0.2490E+00  0.2490E+00
      6.684  0.1572E-01  0.1572E-01  0.2507E+00  0.2507E+00
      6.795  0.1972E-01  0.1972E-01  0.2529E+00  0.2529E+00
      6.906  0.2040E-01  0.2040E-01  0.2552E+00  0.2552E+00
      7.017  0.1770E-01  0.1770E-01  0.2571E+00  0.2571E+00
      7.128  0.1536E-01  0.1536E-01  0.2589E+00  0.2589E+00
      7.239  0.1917E-01  0.1917E-01  0.2610E+00  0.2610E+00
      7.351  0.2692E-01  0.2692E-01  0.2640E+00  0.2640E+00
      7.462  0.2528E-01  0.2528E-01  0.2668E+00  0.2668E+00
      7.573  0.1936E-01  0.1936E-01  0.2689E+00  0.2689E+00
      7.684  0.1329E-01  0.1329E-01  0.2704E+00  0.2704E+00
      7.795  0.1251E-01  0.1252E-01  0.2718E+00  0.2718E+00
      7.906  0.1990E-01  0.1990E-01  0.2740E+00  0.2740E+00
      8.018  0.1972E-01  0.1972E-01  0.2762E+00  0.2762E+00
      8.129  0.1819E-01  0.1819E-01  0.2782E+00  0.2782E+00
      8.240  0.1621E-01  0.1621E-01  0.2800E+00  0.2800E+00
      8.351  0.1384E-01  0.1384E-01  0.2816E+00  0.2816E+00
      8.462  0.2109E-01  0.2109E-01  0.2839E+00  0.2839E+00
      8.573  0.2516E-01  0.2516E-01  0.2867E+00  0.2867E+00
      8.685  0.1802E-01  0.1802E-01  0.2887E+00  0.2887E+00
      8.796  0.1156E-01  0.1156E-01  0.2900E+00  0.2900E+00
      8.907  0.9954E-02  0.9953E-02  0.2911E+00  0.2911E+00
      9.018  0.1357E-01  0.1357E-01  0.2926E+00  0.2926E+00
      9.129  0.1431E-01  0.1431E-01  0.2942E+00  0.2942E+00
      9.240  0.1433E-01  0.1433E-01  0.2958E+00  0.2958E+00
      9.352  0.1691E-01  0.1691E-01  0.2977E+00  0.2977E+00
      9.463  0.1795E-01  0.1795E-01  0.2997E+00  0.2997E+00
      9.574  0.1766E-01  0.1766E-01  0.3016E+00  0.3016E+00
      9.685  0.1716E-01  0.1716E-01  0.3036E+00  0.3036E+00
      9.796  0.1994E-01  0.1994E-01  0.3058E+00  0.3058E+00
      9.908  0.2234E-01  0.2235E-01  0.3083E+00  0.3083E+00
     10.019  0.2704E-01  0.2704E-01  0.3113E+00  0.3113E+00
     10.130  0.1674E-01  0.1674E-01  0.3131E+00  0.3131E+00
     10.241  0.8875E-02  0.8875E-02  0.3141E+00  0.3141E+00
     10.352  0.1234E-01  0.1234E-01  0.3155E+00  0.3155E+00
     10.463  0.1443E-01  0.1443E-01  0.3171E+00  0.3171E+00
     10.575  0.1094E-01  0.1094E-01  0.3183E+00  0.3183E+00
     10.686  0.1051E-01  0.1051E-01  0.3195E+00  0.3195E+00
     10.797  0.1158E-01  0.1158E-01  0.3208E+00  0.3208E+00
     10.908  0.2068E-01  0.2069E-01  0.3231E+00  0.3231E+00
     11.019  0.2475E-01  0.2475E-01  0.3258E+00  0.3258E+00
     11.130  0.1849E-01  0.1849E-01  0.3279E+00  0.3279E+00
     11.242  0.2313E-01  0.2313E-01  0.3304E+00  0.3304E+00
     11.353  0.3395E-01  0.3396E-01  0.3342E+00  0.3342E+00
     11.464  0.3563E-01  0.3563E-01  0.3382E+00  0.3382E+00
     11.575  0.3491E-01  0.3491E-01  0.3421E+00  0.3421E+00
     11.686  0.4118E-01  0.4118E-01  0.3466E+00  0.3466E+00
     11.797  0.2862E-01  0.2862E-01  0.3498E+00  0.3498E+00
     11.909  0.2266E-01  0.2266E-01  0.3523E+00  0.3523E+00
     12.020  0.2845E-01  0.2845E-01  0.3555E+00  0.3555E+00
     12.131  0.3095E-01  0.3095E-01  0.3589E+00  0.3589E+00
     12.242  0.2209E-01  0.2209E-01  0.3614E+00  0.3614E+00
     12.353  0.2394E-01  0.2394E-01  0.3641E+00  0.3641E+00
     12.464  0.2378E-01  0.2378E-01  0.3667E+00  0.3667E+00
     12.576  0.2042E-01  0.2042E-01  0.3690E+00  0.3690E+00
     12.687  0.2170E-01  0.2170E-01  0.3714E+00  0.3714E+00
     12.798  0.1607E-01  0.1607E-01  0.3732E+00  0.3732E+00
     12.909  0.1070E-01  0.1070E-01  0.3744E+00  0.3744E+00
     13.020  0.4438E-02  0.4436E-02  0.3748E+00  0.3748E+00
     13.132  0.6896E-03  0.6889E-03  0.3749E+00  0.3749E+00
     13.243  0.5504E-03  0.5504E-03  0.3750E+00  0.3750E+00
     13.354  0.1497E-03  0.1498E-03  0.3750E+00  0.3750E+00
     13.465  0.4903E-05  0.4908E-05  0.3750E+00  0.3750E+00
     13.576  0.1656E-07  0.1658E-07  0.3750E+00  0.3750E+00
     13.687  0.5277E-11  0.5287E-11  0.3750E+00  0.3750E+00
     13.799  0.1517E-15  0.1520E-15  0.3750E+00  0.3750E+00
     13.910  0.0000E+00  0.0000E+00  0.3750E+00  0.3750E+00
     14.021  0.0000E+00  0.0000E+00  0.3750E+00  0.3750E+00
     14.132  0.0000E+00  0.0000E+00  0.3750E+00  0.3750E+00
     14.243  0.0000E+00  0.0000E+00  0.3750E+00  0.3750E+00
     14.354  0.0000E+00  0.0000E+00  0.3750E+00  0.3750E+00
     14.466  0.0000E+00  0.0000E+00  0.3750E+00  0.3750E+00
     14.577  0.0000E+00  0.0000E+00  0.3750E+00  0.3750E+00
     14.688  0.0000E+00  0.0000E+00  0.3750E+00  0.3750E+00
