Lattice                                 
           1
     4.156922    2.400000    0.000000
    -4.156922    2.400000    0.000000
     0.000000    0.000000   15.000000
   B    C 
     4    11
Direct configuration=     1
   0.00415361  0.00267210  0.12034134
   0.35695335  0.00285503  0.09748893
   0.00423858  0.35550699  0.09749256
   0.65142295  0.65006557  0.09747688
   0.32808646  0.32671938  0.10030508
   0.68027775  0.00278085  0.10027562
   0.00416530  0.67883808  0.10026559
   0.99999933  0.49999967  0.32666667
   0.16666633  0.33333267  0.32666667
   0.99999933  0.99999967  0.32666667
   0.16666633  0.83333267  0.32666667
   0.49999933  0.49999967  0.32666667
   0.66666633  0.33333267  0.32666667
   0.49999933  0.99999967  0.32666667
   0.66666633  0.83333267  0.32666667
Lattice                                 
           1
     4.263513    2.461598    0.000041
    -4.263461    2.461507    0.000049
    -0.000014    0.000283   15.002740
   B    C 
     4    11
Direct configuration=     2
   0.00418309  0.00276335  0.11947400
   0.35619598  0.00311647  0.09765942
   0.00386474  0.35443823  0.09766161
   0.65248622  0.65077689  0.09765009
   0.32568974  0.32385576  0.10024829
   0.68309773  0.00322593  0.10022586
   0.00376706  0.68125276  0.10021747
   0.00016674  0.49995211  0.32672064
   0.16689294  0.33408018  0.32680860
   0.00000053  0.99999349  0.32660411
   0.16717881  0.83310447  0.32681212
   0.50006690  0.50023128  0.32672422
   0.66666724  0.33333929  0.32664523
   0.49978740  0.99983053  0.32671996
   0.66591555  0.83280658  0.32680773
Lattice                                 
           1
     4.192375    2.420488    0.000014
    -4.192357    2.420457    0.000016
    -0.000005    0.000094   15.000911
   B    C 
     4    11
Direct configuration=     3
   0.00416387  0.00270394  0.12005275
   0.35668881  0.00294635  0.09754566
   0.00410800  0.35513370  0.09754881
   0.65179436  0.65031404  0.09753451
   0.32724929  0.32571915  0.10028617
   0.68126276  0.00293633  0.10025907
   0.00402619  0.67968147  0.10024958
   0.00005781  0.49998306  0.32668463
   0.16674549  0.33359377  0.32671389
  -0.00000025  0.99999751  0.32664585
   0.16684535  0.83325297  0.32671506
   0.50002294  0.50008057  0.32668582
   0.66666665  0.33333498  0.32665953
   0.49992531  0.99994059  0.32668440
   0.66640409  0.83314892  0.32671360
Lattice                                 
           1
     4.191890    2.420208    0.000014
    -4.191873    2.420178    0.000016
    -0.000005    0.000093   15.000899
   B    C 
     4    11
Direct configuration=     4
   0.00416374  0.00270353  0.12005670
   0.35669223  0.00294517  0.09754488
   0.00410969  0.35513851  0.09754804
   0.65178956  0.65031083  0.09753373
   0.32726010  0.32573206  0.10028643
   0.68125004  0.00293432  0.10025930
   0.00402799  0.67967059  0.10024980
   0.00005705  0.49998327  0.32668438
   0.16674447  0.33359040  0.32671325
  -0.00000026  0.99999754  0.32664614
   0.16684304  0.83325400  0.32671440
   0.50002263  0.50007952  0.32668555
   0.66666665  0.33333495  0.32665963
   0.49992626  0.99994135  0.32668416
   0.66640748  0.83315129  0.32671296
Lattice                                 
           1
     4.191534    2.420009    0.000053
    -4.191513    2.419974    0.000047
     0.000012    0.000311   15.002087
   B    C 
     4    11
Direct configuration=     5
   0.00417456  0.00274918  0.11923846
   0.35665428  0.00310505  0.09775074
   0.00388028  0.35491771  0.09775250
   0.65202278  0.65032480  0.09774190
   0.32643011  0.32464018  0.10019564
   0.68232163  0.00317481  0.10017471
   0.00379744  0.68051543  0.10016660
  -0.00005293  0.50001241  0.32674266
   0.16666136  0.33325859  0.32681612
  -0.00000097  0.00000110  0.32662822
   0.16660618  0.83334571  0.32681968
   0.49998449  0.49993440  0.32674618
   0.66667020  0.33333368  0.32664893
   0.50006222  0.00005191  0.32674183
   0.66674906  0.83340237  0.32681517
Lattice                                 
           1
     4.191506    2.419993    0.000056
    -4.191485    2.419958    0.000049
     0.000013    0.000328   15.002180
   B    C 
     4    11
Direct configuration=     6
   0.00417541  0.00275275  0.11917469
   0.35665132  0.00311751  0.09776678
   0.00386240  0.35490050  0.09776843
   0.65204096  0.65032589  0.09775812
   0.32636542  0.32455507  0.10018856
   0.68240515  0.00319355  0.10016812
   0.00377947  0.68058128  0.10016012
  -0.00006150  0.50001468  0.32674720
   0.16665488  0.33323272  0.32682414
  -0.00000103  0.00000138  0.32662683
   0.16658771  0.83335286  0.32682788
   0.49998151  0.49992309  0.32675091
   0.66667047  0.33333358  0.32664810
   0.50007282  0.00006052  0.32674632
   0.66677568  0.83342194  0.32682314
Lattice                                 
           1
     4.191694    2.420110    0.000086
    -4.191669    2.420067    0.000066
     0.000034    0.000472   15.003188
   B    C 
     4    11
Direct configuration=     7
   0.00417997  0.00277518  0.11864590
   0.35688039  0.00318529  0.09788358
   0.00375973  0.35505224  0.09788440
   0.65189890  0.65008400  0.09787629
   0.32646677  0.32455271  0.10013593
   0.68239835  0.00328394  0.10011946
   0.00368726  0.68048758  0.10011222
   0.00001164  0.49999987  0.32679223
   0.16667653  0.33339077  0.32688332
   0.00000344  0.00000154  0.32663831
   0.16671757  0.83332766  0.32688824
   0.50000597  0.50001437  0.32679706
   0.66666905  0.33333501  0.32664951
   0.49999127 -0.00000836  0.32679097
   0.66661384  0.83328552  0.32688193
Lattice                                 
           1
     4.192257    2.420459    0.000173
    -4.192221    2.420397    0.000119
     0.000096    0.000904   15.006212
   B    C 
     4    11
Direct configuration=     8
   0.00419370  0.00284252  0.11705963
   0.35756754  0.00338859  0.09823394
   0.00345172  0.35550743  0.09823226
   0.65147274  0.64935837  0.09823075
   0.32677081  0.32454565  0.09997803
   0.68237798  0.00355509  0.09997348
   0.00341064  0.68020652  0.09996854
   0.00023105  0.49995541  0.32692729
   0.16674147  0.33386488  0.32706086
   0.00001684  0.00000202  0.32667276
   0.16710710  0.83325207  0.32706929
   0.50007932  0.50028822  0.32693551
   0.66666479  0.33333930  0.32665377
   0.49974663 -0.00021499  0.32692492
   0.66612832  0.83287625  0.32705830
Lattice                                 
           1
     4.193383    2.421158    0.000347
    -4.193324    2.421056    0.000224
     0.000220    0.001770   15.012259
   B    C 
     4    11
Direct configuration=     9
   0.00422147  0.00297744  0.11388773
   0.35894159  0.00379507  0.09893453
   0.00283573  0.35641764  0.09892785
   0.65062048  0.64790724  0.09893955
   0.32737884  0.32453155  0.09966230
   0.68233726  0.00409735  0.09968157
   0.00285752  0.67964448  0.09968124
   0.00066978  0.49986648  0.32719737
   0.16687130  0.33481294  0.32741586
   0.00004363  0.00000298  0.32674163
   0.16788603  0.83310088  0.32743132
   0.50022598  0.50083583  0.32721236
   0.66665626  0.33334787  0.32666228
   0.49925739 -0.00062821  0.32719275
   0.66515740  0.83205781  0.32741099
Lattice                                 
           1
     4.192694    2.420730    0.000240
    -4.192649    2.420652    0.000160
     0.000144    0.001240   15.008558
   B    C 
     4    11
Direct configuration=    10
   0.00420410  0.00289457  0.11582815
   0.35810099  0.00354645  0.09850595
   0.00321270  0.35586081  0.09850232
   0.65114200  0.64879515  0.09850593
   0.32700679  0.32454015  0.09985546
   0.68236214  0.00376555  0.09986015
   0.00319590  0.67998832  0.09985699
   0.00040138  0.49992092  0.32703215
   0.16679191  0.33423292  0.32719869
   0.00002725  0.00000240  0.32669950
   0.16740950  0.83319343  0.32720986
   0.50013629  0.50050081  0.32704300
   0.66666148  0.33334263  0.32665707
   0.49955675 -0.00037536  0.32702890
   0.66575148  0.83255859  0.32719522
Lattice                                 
           1
     4.192843    2.420802    0.000261
    -4.192808    2.420741    0.000169
     0.000165    0.001336   15.009225
   B    C 
     4    11
Direct configuration=    11
   0.00420569  0.00290344  0.11546042
   0.35824101  0.00356630  0.09856782
   0.00317881  0.35597846  0.09856375
   0.65102957  0.64864870  0.09856850
   0.32713199  0.32464191  0.09983642
   0.68225662  0.00378190  0.09984350
   0.00317476  0.67986636  0.09984076
   0.00034562  0.49993848  0.32706449
   0.16679292  0.33413768  0.32723284
   0.00002385  0.00000262  0.32672263
   0.16732317  0.83319998  0.32724445
   0.50011240  0.50042658  0.32707573
   0.66666561  0.33334311  0.32666782
   0.49962414 -0.00032270  0.32706102
   0.66585452  0.83265453  0.32722918
Lattice                                 
           1
     4.193291    2.421016    0.000325
    -4.193285    2.421007    0.000198
     0.000227    0.001622   15.011224
   B    C 
     4    11
Direct configuration=    12
   0.00421047  0.00293005  0.11435729
   0.35866105  0.00362587  0.09875340
   0.00307715  0.35633139  0.09874803
   0.65069228  0.64820933  0.09875622
   0.32750756  0.32494718  0.09977933
   0.68194009  0.00383096  0.09979357
   0.00311131  0.67950048  0.09979209
   0.00017835  0.49999117  0.32716151
   0.16679595  0.33385197  0.32733526
   0.00001364  0.00000325  0.32679201
   0.16706419  0.83321963  0.32734821
   0.50004072  0.50020391  0.32717392
   0.66667799  0.33334454  0.32670008
   0.49982629 -0.00016474  0.32715738
   0.66616363  0.83294235  0.32733104
Lattice                                 
           1
     4.194186    2.421445    0.000452
    -4.194240    2.421539    0.000256
     0.000352    0.002195   15.015223
   B    C 
     4    11
Direct configuration=    13
   0.00422019  0.00298338  0.11215131
   0.35950103  0.00374497  0.09912452
   0.00287382  0.35703715  0.09911654
   0.65001774  0.64733068  0.09913160
   0.32825863  0.32555766  0.09966514
   0.68130708  0.00392906  0.09969373
   0.00298444  0.67876881  0.09969475
  -0.00015619  0.50009652  0.32735551
   0.16680199  0.33328061  0.32754009
  -0.00000678  0.00000452  0.32693076
   0.16654626  0.83325890  0.32755572
   0.49989738  0.49975859  0.32737028
   0.66670276  0.33334741  0.32676457
   0.50023053  0.00015114  0.32735008
   0.66678178  0.83351792  0.32753473
Lattice                                 
           1
     4.194021    2.421366    0.000429
    -4.194064    2.421441    0.000245
     0.000329    0.002089   15.014485
   B    C 
     4    11
Direct configuration=    14
   0.00421834  0.00297350  0.11255828
   0.35934607  0.00372300  0.09905605
   0.00291134  0.35690695  0.09904856
   0.65014220  0.64749279  0.09906235
   0.32812005  0.32544503  0.09968621
   0.68142386  0.00391096  0.09971215
   0.00300785  0.67890380  0.09971271
  -0.00009447  0.50007709  0.32731972
   0.16680088  0.33338603  0.32750230
  -0.00000301  0.00000429  0.32690516
   0.16664183  0.83325166  0.32751743
   0.49992383  0.49984075  0.32733406
   0.66669819  0.33334688  0.32675267
   0.50015596  0.00009287  0.32731453
   0.66666774  0.83341173  0.32749715
Lattice                                 
           1
     4.193845    2.421283    0.000460
    -4.193872    2.421329    0.000251
     0.000374    0.002205   15.015121
   B    C 
     4    11
Direct configuration=    15
   0.00421539  0.00296319  0.11204508
   0.35929504  0.00366952  0.09907586
   0.00298004  0.35691718  0.09906845
   0.65012888  0.64754370  0.09908219
   0.32809054  0.32552160  0.09972351
   0.68134972  0.00380551  0.09975100
   0.00310144  0.67892990  0.09975171
  -0.00006582  0.50004802  0.32736246
   0.16671775  0.33331543  0.32752893
   0.00001076  0.00000951  0.32698241
   0.16663439  0.83331979  0.32754332
   0.49996938  0.49989340  0.32737588
   0.66668813  0.33334408  0.32680751
   0.50012139  0.00008211  0.32735714
   0.66672367  0.83340438  0.32752389
Lattice                                 
           1
     4.193320    2.421032    0.000554
    -4.193298    2.420994    0.000269
     0.000509    0.002550   15.017028
   B    C 
     4    11
Direct configuration=    16
   0.00420656  0.00293228  0.11050555
   0.35914194  0.00350906  0.09913527
   0.00318612  0.35694789  0.09912811
   0.65008893  0.64769642  0.09914170
   0.32800198  0.32575132  0.09983542
   0.68112726  0.00348913  0.09986755
   0.00338220  0.67900821  0.09986871
   0.00002012  0.49996082  0.32749069
   0.16646833  0.33310364  0.32760882
   0.00005204  0.00002516  0.32721415
   0.16661207  0.83352420  0.32762098
   0.50010601  0.50005137  0.32750134
   0.66665793  0.33333568  0.32697200
   0.50001770  0.00004983  0.32748496
   0.66689148  0.83338232  0.32760409
Lattice                                 
           1
     4.192269    2.420531    0.000741
    -4.192150    2.420324    0.000305
     0.000780    0.003241   15.020843
   B    C 
     4    11
Direct configuration=    17
   0.00418918  0.00287062  0.10742687
   0.35883570  0.00318809  0.09925408
   0.00359834  0.35700931  0.09924742
   0.65000901  0.64800191  0.09926071
   0.32782482  0.32621082  0.10005921
   0.68068229  0.00285628  0.10010062
   0.00394378  0.67916483  0.10010268
   0.00019199  0.49978638  0.32774710
   0.16596943  0.33267998  0.32776857
   0.00013457  0.00005645  0.32767757
   0.16656742  0.83393305  0.32777628
   0.50037928  0.50036732  0.32775223
   0.66659749  0.33331885  0.32730096
   0.49981025 -0.00001475  0.32774056
   0.66722711  0.83333819  0.32776448
Lattice                                 
           1
     4.192856    2.420744    0.000790
    -4.192824    2.420687    0.000313
     0.000853    0.003420   15.021479
   B    C 
     4    11
Direct configuration=    18
   0.00418202  0.00284928  0.10662967
   0.35880049  0.00309968  0.09927746
   0.00372182  0.35707111  0.09927138
   0.64993349  0.64804915  0.09928365
   0.32778131  0.32630533  0.10011324
   0.68058739  0.00273279  0.10015527
   0.00406268  0.67918587  0.10015726
   0.00015043  0.49989229  0.32780524
   0.16630594  0.33301476  0.32782060
   0.00007176  0.00003360  0.32779703
   0.16667169  0.83368008  0.32782685
   0.50020404  0.50024747  0.32780871
   0.66665766  0.33333976  0.32741727
   0.49985385 -0.00005122  0.32779885
   0.66697609  0.83331738  0.32781688
Lattice                                 
           1
     4.193261    2.420890    0.000824
    -4.193288    2.420938    0.000319
     0.000903    0.003543   15.021917
   B    C 
     4    11
Direct configuration=    19
   0.00417711  0.00283458  0.10607989
   0.35877621  0.00303872  0.09929358
   0.00380698  0.35711373  0.09928790
   0.64988141  0.64808173  0.09929946
   0.32775131  0.32637050  0.10015050
   0.68052195  0.00264763  0.10019296
   0.00414466  0.67920038  0.10019489
   0.00012177  0.49996532  0.32784533
   0.16653798  0.33324560  0.32785648
   0.00002845  0.00001784  0.32787941
   0.16674359  0.83350564  0.32786173
   0.50008321  0.50016483  0.32784766
   0.66669915  0.33335417  0.32749748
   0.49988392 -0.00007636  0.32783905
   0.66680298  0.83330302  0.32785301
Lattice                                 
           1
     4.194071    2.421184    0.000892
    -4.194218    2.421439    0.000331
     0.001004    0.003790   15.022794
   B    C 
     4    11
Direct configuration=    20
   0.00416731  0.00280521  0.10498038
   0.35872765  0.00291680  0.09932582
   0.00397726  0.35719896  0.09932094
   0.64977726  0.64814687  0.09933109
   0.32769131  0.32650081  0.10022502
   0.68039107  0.00247734  0.10026834
   0.00430861  0.67922939  0.10027017
   0.00006444  0.50011136  0.32792550
   0.16700204  0.33370725  0.32792823
  -0.00005818 -0.00001368  0.32804417
   0.16688738  0.83315682  0.32793147
   0.49984154  0.49999955  0.32792556
   0.66678211  0.33338300  0.32765790
   0.49994404 -0.00012665  0.32791945
   0.66645680  0.83327430  0.32792528
Lattice                                 
           1
     4.193689    2.421046    0.000860
    -4.193779    2.421202    0.000325
     0.000956    0.003673   15.022380
   B    C 
     4    11
Direct configuration=    21
   0.00417190  0.00281905  0.10549927
   0.35875057  0.00297433  0.09931061
   0.00389691  0.35715874  0.09930534
   0.64982641  0.64811613  0.09931616
   0.32771962  0.32643932  0.10018986
   0.68045283  0.00255770  0.10023276
   0.00423125  0.67921570  0.10023465
   0.00009150  0.50004245  0.32788767
   0.16678306  0.33348941  0.32789437
  -0.00001730  0.00000120  0.32796641
   0.16681953  0.83332141  0.32789856
   0.49995558  0.50007755  0.32788879
   0.66674297  0.33336940  0.32758220
   0.49991567 -0.00010292  0.32788151
   0.66662016  0.83328786  0.32789118
Lattice                                 
           1
     4.194201    2.421447    0.000871
    -4.194231    2.421498    0.000327
     0.000974    0.003712   15.021898
   B    C 
     4    11
Direct configuration=    22
   0.00416790  0.00281211  0.10535447
   0.35885058  0.00297961  0.09932796
   0.00389892  0.35724657  0.09932328
   0.64972437  0.64802604  0.09933287
   0.32775338  0.32640903  0.10016967
   0.68048014  0.00263721  0.10021040
   0.00417074  0.67916834  0.10021199
   0.00006800  0.50003431  0.32789216
   0.16676698  0.33349103  0.32792398
   0.00001984  0.00001355  0.32797348
   0.16678138  0.83329553  0.32792794
   0.50000781  0.50004862  0.32789308
   0.66670786  0.33335773  0.32763068
   0.49999042 -0.00003225  0.32788634
   0.66657234  0.83327992  0.32792106
Lattice                                 
           1
     4.195500    2.422463    0.000899
    -4.195375    2.422246    0.000329
     0.001020    0.003809   15.020676
   B    C 
     4    11
Direct configuration=    23
   0.00415776  0.00279451  0.10498745
   0.35910400  0.00299298  0.09937193
   0.00390401  0.35746914  0.09936872
   0.64946578  0.64779774  0.09937520
   0.32783893  0.32633225  0.10011850
   0.68054933  0.00283869  0.10015372
   0.00401743  0.67904833  0.10015458
   0.00000847  0.50001370  0.32790354
   0.16672623  0.33349513  0.32799903
   0.00011395  0.00004484  0.32799139
   0.16668471  0.83322993  0.32800241
   0.50014015  0.49997530  0.32790392
   0.66661891  0.33332817  0.32775355
   0.50017984  0.00014683  0.32789859
   0.66645115  0.83325981  0.32799680
Lattice                                 
           1
     4.195470    2.422367    0.000913
    -4.195408    2.422261    0.000330
     0.001044    0.003854   15.019436
   B    C 
     4    11
Direct configuration=    24
   0.00415057  0.00277862  0.10481931
   0.35922216  0.00301731  0.09939941
   0.00388498  0.35755768  0.09939708
   0.64935900  0.64768807  0.09940159
   0.32785885  0.32623224  0.10007222
   0.68065123  0.00297745  0.10010318
   0.00390570  0.67901944  0.10010347
  -0.00000240  0.49998544  0.32791812
   0.16670951  0.33344964  0.32803940
   0.00006753  0.00003094  0.32799752
   0.16673353  0.83330600  0.32804272
   0.50010884  0.50001001  0.32791854
   0.66666677  0.33334356  0.32781529
   0.50008538  0.00009761  0.32791384
   0.66655901  0.83327333  0.32803765
Lattice                                 
           1
     4.195416    2.422198    0.000937
    -4.195468    2.422287    0.000330
     0.001087    0.003932   15.017251
   B    C 
     4    11
Direct configuration=    25
   0.00413791  0.00275063  0.10452321
   0.35943025  0.00306016  0.09944780
   0.00385148  0.35771359  0.09944703
   0.64917097  0.64749495  0.09944807
   0.32789391  0.32605612  0.09999072
   0.68083067  0.00322180  0.10001417
   0.00370894  0.67896856  0.10001345
  -0.00002154  0.49993568  0.32794381
   0.16668006  0.33336955  0.32811049
  -0.00001421  0.00000647  0.32800832
   0.16681948  0.83343995  0.32811369
   0.50005371  0.50007113  0.32794427
   0.66675104  0.33337067  0.32792400
   0.49991904  0.00001093  0.32794072
   0.66674895  0.83329714  0.32810958
Lattice                                 
           1
     4.194678    2.421832    0.000951
    -4.194683    2.421841    0.000330
     0.001112    0.003972   15.015121
   B    C 
     4    11
Direct configuration=    26
   0.00413099  0.00273043  0.10436769
   0.35943791  0.00309150  0.09946557
   0.00381959  0.35769226  0.09946558
   0.64918158  0.64748348  0.09946466
   0.32788154  0.32596517  0.09993900
   0.68093222  0.00330601  0.09995734
   0.00363497  0.67899381  0.09995601
   0.00007625  0.50000395  0.32798604
   0.16668130  0.33338401  0.32813737
   0.00001825  0.00001615  0.32802986
   0.16677473  0.83339244  0.32814084
   0.50003453  0.50008961  0.32798688
   0.66671764  0.33336095  0.32796200
   0.49994714 -0.00004132  0.32798359
   0.66669204  0.83329888  0.32813691
Lattice                                 
           1
     4.193872    2.421432    0.000965
    -4.193827    2.421354    0.000330
     0.001139    0.004017   15.012794
   B    C 
     4    11
Direct configuration=    27
   0.00412343  0.00270836  0.10419784
   0.35944627  0.00312573  0.09948497
   0.00378475  0.35766896  0.09948583
   0.64919317  0.64747096  0.09948277
   0.32786804  0.32586583  0.09988251
   0.68104312  0.00339799  0.09989529
   0.00355419  0.67902139  0.09989329
   0.00018305  0.50007851  0.32803216
   0.16668265  0.33339979  0.32816673
   0.00005370  0.00002672  0.32805339
   0.16672585  0.83334056  0.32817048
   0.50001358  0.50010979  0.32803340
   0.66668115  0.33335033  0.32800349
   0.49997784 -0.00009838  0.32803042
   0.66662988  0.83330079  0.32816676
Lattice                                 
           1
     4.193914    2.421405    0.000981
    -4.193885    2.421355    0.000330
     0.001166    0.004066   15.009506
   B    C 
     4    11
Direct configuration=    28
   0.00412091  0.00269839  0.10402965
   0.35938445  0.00315590  0.09948112
   0.00375538  0.35758300  0.09948260
   0.64927958  0.64752821  0.09947776
   0.32789399  0.32589576  0.09983325
   0.68101791  0.00338939  0.09984031
   0.00355414  0.67900473  0.09983760
   0.00009948  0.50004549  0.32810172
   0.16671737  0.33343672  0.32818853
   0.00004919  0.00002505  0.32809422
   0.16674514  0.83332257  0.32819281
   0.50003458  0.50006141  0.32810367
   0.66668921  0.33335222  0.32802662
   0.50001610 -0.00002426  0.32810053
   0.66660325  0.83329276  0.32818895
Lattice                                 
           1
     4.194029    2.421331    0.001023
    -4.194046    2.421359    0.000331
     0.001240    0.004203   15.000451
   B    C 
     4    11
Direct configuration=    29
   0.00411398  0.00267093  0.10356648
   0.35921426  0.00323898  0.09947051
   0.00367452  0.35734632  0.09947371
   0.64951750  0.64768582  0.09946393
   0.32796543  0.32597818  0.09969759
   0.68094849  0.00336572  0.09968891
   0.00355400  0.67895884  0.09968424
  -0.00013064  0.49995458  0.32829327
   0.16681296  0.33353839  0.32824856
   0.00003677  0.00002047  0.32820665
   0.16679825  0.83327302  0.32825430
   0.50009238  0.49992820  0.32829718
   0.66671139  0.33335743  0.32809031
   0.50012144  0.00017981  0.32829360
   0.66652994  0.83327065  0.32825007
Lattice                                 
           1
     4.194286    2.421474    0.001034
    -4.194302    2.421502    0.000332
     0.001258    0.004244   14.997639
   B    C 
     4    11
Direct configuration=    30
   0.00411543  0.00267516  0.10343847
   0.35919430  0.00325176  0.09945543
   0.00366372  0.35731365  0.09945897
   0.64955111  0.64770667  0.09944816
   0.32798803  0.32602989  0.09966764
   0.68089240  0.00333436  0.09965525
   0.00357792  0.67893025  0.09965009
  -0.00009917  0.49995578  0.32833837
   0.16678427  0.33351208  0.32827524
   0.00003594  0.00002081  0.32823506
   0.16679982  0.83330006  0.32828128
   0.50009316  0.49995767  0.32834275
   0.66671239  0.33335895  0.32811672
   0.50009277  0.00014937  0.32833896
   0.66655857  0.83327087  0.32827693
Lattice                                 
           1
     4.195057    2.421904    0.001069
    -4.195072    2.421931    0.000336
     0.001314    0.004365   14.989202
   B    C 
     4    11
Direct configuration=    31
   0.00411979  0.00268782  0.10305437
   0.35913445  0.00329012  0.09941019
   0.00363134  0.35721563  0.09941476
   0.64965195  0.64776921  0.09940083
   0.32805581  0.32618503  0.09957779
   0.68072416  0.00324027  0.09955422
   0.00364968  0.67884450  0.09954763
  -0.00000478  0.49995937  0.32847369
   0.16669819  0.33343318  0.32835528
   0.00003343  0.00002184  0.32832030
   0.16680455  0.83338119  0.32836224
   0.50009550  0.50004606  0.32847948
   0.66671538  0.33336352  0.32819595
   0.50000677  0.00005804  0.32847507
   0.66664446  0.83327155  0.32835754
Lattice                                 
           1
     4.196597    2.422765    0.001138
    -4.196612    2.422790    0.000344
     0.001426    0.004609   14.972327
   B    C 
     4    11
Direct configuration=    32
   0.00412854  0.00271315  0.10228574
   0.35901477  0.00336683  0.09931965
   0.00356659  0.35701963  0.09932627
   0.64985359  0.64789428  0.09930612
   0.32819136  0.32649525  0.09939799
   0.68038773  0.00305214  0.09935207
   0.00379317  0.67867301  0.09934258
   0.00018395  0.49996656  0.32874447
   0.16652605  0.33327539  0.32851546
   0.00002842  0.00002390  0.32849087
   0.16681400  0.83354342  0.32852424
   0.50010015  0.50022280  0.32875310
   0.66672135  0.33337265  0.32835451
   0.49983478 -0.00012458  0.32874744
   0.66681621  0.83327291  0.32851884
Lattice                                 
           1
     4.195758    2.422296    0.001100
    -4.195773    2.422322    0.000340
     0.001365    0.004476   14.981516
   B    C 
     4    11
Direct configuration=    33
   0.00412375  0.00269935  0.10270476
   0.35907992  0.00332507  0.09936900
   0.00360183  0.35712632  0.09937451
   0.64974383  0.64782620  0.09935775
   0.32811757  0.32632638  0.09949601
   0.68057085  0.00315454  0.09946227
   0.00371506  0.67876635  0.09945436
   0.00008122  0.49996265  0.32859686
   0.16661976  0.33336128  0.32842814
   0.00003116  0.00002279  0.32839788
   0.16680886  0.83345512  0.32843592
   0.50009763  0.50012660  0.32860394
   0.66671810  0.33336768  0.32826807
   0.49992841 -0.00002517  0.32859895
   0.66672272  0.83327217  0.32843091
Lattice                                 
           1
     4.195658    2.422285    0.001120
    -4.195656    2.422282    0.000342
     0.001396    0.004549   14.976098
   B    C 
     4    11
Direct configuration=    34
   0.00412825  0.00271536  0.10247317
   0.35910186  0.00332128  0.09932314
   0.00360439  0.35714767  0.09932892
   0.64972261  0.64780497  0.09931116
   0.32809482  0.32635905  0.09945365
   0.68052748  0.00309723  0.09941521
   0.00376372  0.67877301  0.09940666
   0.00012763  0.50000822  0.32865294
   0.16663509  0.33335691  0.32850131
   0.00004089  0.00002589  0.32844150
   0.16677724  0.83343084  0.32850923
   0.50006540  0.50012727  0.32866046
   0.66671182  0.33336491  0.32834266
   0.49994205 -0.00005874  0.32865516
   0.66671742  0.83329346  0.32850418
Lattice                                 
           1
     4.195357    2.422253    0.001181
    -4.195305    2.422162    0.000351
     0.001491    0.004766   14.959844
   B    C 
     4    11
Direct configuration=    35
   0.00414176  0.00276340  0.10177817
   0.35916769  0.00330988  0.09918549
   0.00361206  0.35721173  0.09919210
   0.64965895  0.64774130  0.09917131
   0.32802659  0.32645707  0.09932650
   0.68039736  0.00292531  0.09927397
   0.00390970  0.67879298  0.09926352
   0.00026684  0.50014491  0.32882125
   0.16668110  0.33334377  0.32872088
   0.00007011  0.00003522  0.32857239
   0.16668235  0.83335801  0.32872924
   0.49996870  0.50012928  0.32883008
   0.66669295  0.33335661  0.32856650
   0.49998298 -0.00015946  0.32882385
   0.66670152  0.83335732  0.32872407
Lattice                                 
           1
     4.194756    2.422187    0.001301
    -4.194602    2.421922    0.000367
     0.001679    0.005200   14.927337
   B    C 
     4    11
Direct configuration=    36
   0.00416887  0.00285953  0.10038665
   0.35929939  0.00328710  0.09890990
   0.00362741  0.35733986  0.09891817
   0.64953165  0.64761395  0.09889131
   0.32789013  0.32665314  0.09907194
   0.68013712  0.00258144  0.09899118
   0.00420169  0.67883293  0.09897694
   0.00054526  0.50041831  0.32915823
   0.16677308  0.33331749  0.32916052
   0.00012852  0.00005386  0.32883446
   0.16649255  0.83321234  0.32916973
   0.49977529  0.50013329  0.32916969
   0.66665519  0.33333999  0.32901468
   0.50006484 -0.00036093  0.32916160
   0.66666968  0.83348503  0.32916434
Lattice                                 
           1
     4.194661    2.422117    0.001319
    -4.194526    2.421884    0.000369
     0.001707    0.005261   14.922443
   B    C 
     4    11
Direct configuration=    37
   0.00416963  0.00286347  0.10018313
   0.35931491  0.00327521  0.09886845
   0.00363269  0.35736757  0.09887681
   0.64950566  0.64759302  0.09884947
   0.32786024  0.32664691  0.09903210
   0.68014120  0.00255374  0.09894832
   0.00422345  0.67886309  0.09893365
   0.00049106  0.50037555  0.32920796
   0.16677490  0.33333220  0.32922453
   0.00011766  0.00005091  0.32888085
   0.16652852  0.83322956  0.32923369
   0.49980271  0.50012461  0.32921958
   0.66666750  0.33334456  0.32908111
   0.50005755 -0.00032095  0.32921133
   0.66667299  0.83346789  0.32922834
Lattice                                 
           1
     4.194375    2.421906    0.001371
    -4.194297    2.421771    0.000376
     0.001791    0.005446   14.907760
   B    C 
     4    11
Direct configuration=    38
   0.00417195  0.00287530  0.09957238
   0.35936148  0.00323953  0.09874407
   0.00364852  0.35745071  0.09875271
   0.64942769  0.64753023  0.09872391
   0.32777057  0.32662822  0.09891256
   0.68015343  0.00247064  0.09881969
   0.00428871  0.67895355  0.09880376
   0.00032845  0.50024726  0.32935719
   0.16678034  0.33337634  0.32941663
   0.00008507  0.00004207  0.32902004
   0.16663644  0.83328122  0.32942563
   0.49988498  0.50009854  0.32936928
   0.66670444  0.33335825  0.32928048
   0.50003569 -0.00020101  0.32936058