Lattice                                 
           1
     4.315405    2.491500    0.000000
    -4.315405    2.491500    0.000000
     0.000000    0.000000   15.000000
   B    C 
     8     8
Direct configuration=     1
   0.66888689  0.00000000  0.10000000
   0.33111211  0.00000000  0.10000000
   0.00000000  0.33111211  0.10000000
   0.00000000  0.66888689  0.10000000
   0.33111211  0.33111211  0.10000000
   0.66888689  0.66888689  0.10000000
   0.66666600  0.33333300  0.09922189
   0.33333300  0.66666600  0.10077811
   0.27777711  0.22222189  0.46960000
   0.44444411  0.05555489  0.46960000
   0.27777711  0.72222189  0.46960000
   0.44444411  0.55555489  0.46960000
   0.77777711  0.22222189  0.46960000
   0.94444411  0.05555489  0.46960000
   0.77777711  0.72222189  0.46960000
   0.94444411  0.55555489  0.46960000
Direct configuration=     2
   0.67048054 -0.00000011  0.10002615
   0.32951857 -0.00000013  0.10002620
   0.00000011  0.32951846  0.10002615
   0.00000013  0.67048043  0.10002620
   0.32951824  0.32951822  0.10002623
   0.67048078  0.67048076  0.10002623
   0.66666614  0.33333286  0.09924538
   0.33333259  0.66666641  0.10081308
   0.27777228  0.22221747  0.46957336
   0.44444187  0.05555714  0.46957274
   0.27777719  0.72222181  0.46957224
   0.44444492  0.55555408  0.46957296
   0.77778052  0.22221848  0.46957317
   0.94444465  0.05555435  0.46957381
   0.77778153  0.72222672  0.46957336
   0.94444186  0.55555713  0.46957274
Direct configuration=     3
   0.66971296 -0.00000006  0.10001355
   0.33028610 -0.00000006  0.10001358
   0.00000006  0.33028604  0.10001355
   0.00000006  0.66971290  0.10001358
   0.33028593  0.33028592  0.10001360
   0.66971308  0.66971307  0.10001360
   0.66666607  0.33333293  0.09923407
   0.33333279  0.66666621  0.10079624
   0.27777461  0.22221960  0.46958619
   0.44444295  0.05555606  0.46958587
   0.27777715  0.72222185  0.46958561
   0.44444453  0.55555447  0.46958598
   0.77777888  0.22222012  0.46958609
   0.94444439  0.05555461  0.46958643
   0.77777940  0.72222439  0.46958619
   0.94444294  0.55555605  0.46958587
Direct configuration=     4
   0.66971628 -0.00000006  0.10001361
   0.33028278 -0.00000007  0.10001364
   0.00000006  0.33028272  0.10001361
   0.00000007  0.66971622  0.10001364
   0.33028261  0.33028260  0.10001365
   0.66971640  0.66971639  0.10001365
   0.66666607  0.33333293  0.09923412
   0.33333279  0.66666621  0.10079631
   0.27777460  0.22221959  0.46958613
   0.44444295  0.05555606  0.46958581
   0.27777715  0.72222185  0.46958555
   0.44444453  0.55555447  0.46958593
   0.77777888  0.22222012  0.46958604
   0.94444439  0.05555461  0.46958637
   0.77777941  0.72222440  0.46958613
   0.94444294  0.55555605  0.46958581
Direct configuration=     5
   0.66971489 -0.00000006  0.10001359
   0.33028416 -0.00000006  0.10001361
   0.00000006  0.33028411  0.10001359
   0.00000006  0.66971484  0.10001361
   0.33028399  0.33028398  0.10001363
   0.66971502  0.66971501  0.10001363
   0.66666607  0.33333293  0.09923409
   0.33333279  0.66666621  0.10079628
   0.27777460  0.22221959  0.46958616
   0.44444295  0.05555606  0.46958584
   0.27777715  0.72222185  0.46958558
   0.44444453  0.55555447  0.46958595
   0.77777888  0.22222012  0.46958606
   0.94444439  0.05555461  0.46958639
   0.77777941  0.72222440  0.46958616
   0.94444294  0.55555605  0.46958584
Direct configuration=     6
   0.66971392 -0.00000006  0.10001357
   0.33028513 -0.00000006  0.10001360
   0.00000006  0.33028508  0.10001357
   0.00000006  0.66971387  0.10001360
   0.33028496  0.33028495  0.10001361
   0.66971405  0.66971404  0.10001361
   0.66666607  0.33333293  0.09923408
   0.33333279  0.66666621  0.10079626
   0.27777460  0.22221960  0.46958617
   0.44444295  0.05555606  0.46958585
   0.27777715  0.72222185  0.46958559
   0.44444453  0.55555447  0.46958597
   0.77777888  0.22222012  0.46958608
   0.94444439  0.05555461  0.46958641
   0.77777940  0.72222440  0.46958617
   0.94444294  0.55555605  0.46958585
Direct configuration=     7
   0.66971344 -0.00000006  0.10001356
   0.33028562 -0.00000006  0.10001359
   0.00000006  0.33028556  0.10001356
   0.00000006  0.66971338  0.10001359
   0.33028545  0.33028544  0.10001361
   0.66971356  0.66971355  0.10001361
   0.66666607  0.33333293  0.09923407
   0.33333279  0.66666621  0.10079625
   0.27777460  0.22221960  0.46958618
   0.44444295  0.05555606  0.46958586
   0.27777715  0.72222185  0.46958560
   0.44444453  0.55555447  0.46958598
   0.77777888  0.22222012  0.46958609
   0.94444439  0.05555461  0.46958642
   0.77777940  0.72222440  0.46958618
   0.94444294  0.55555605  0.46958586
Direct configuration=     8
   0.66971353 -0.00000008  0.10003748
   0.33028564 -0.00000003  0.10003756
   0.00000008  0.33028547  0.10003748
   0.00000003  0.66971336  0.10003756
   0.33028551  0.33028549  0.10003760
   0.66971351  0.66971349  0.10003760
   0.66666605  0.33333295  0.09925814
   0.33333277  0.66666623  0.10082476
   0.27777786  0.22222330  0.46956186
   0.44444497  0.05555393  0.46956110
   0.27777670  0.72222230  0.46956051
   0.44444424  0.55555476  0.46956136
   0.77777588  0.22222312  0.46956163
   0.94444436  0.05555464  0.46956239
   0.77777570  0.72222114  0.46956186
   0.94444507  0.55555403  0.46956110
Direct configuration=     9
   0.66971379 -0.00000014  0.10010925
   0.33028571  0.00000008  0.10010947
   0.00000014  0.33028521  0.10010925
  -0.00000008  0.66971329  0.10010947
   0.33028571  0.33028566  0.10010958
   0.66971334  0.66971329  0.10010958
   0.66666599  0.33333301  0.09933034
   0.33333273  0.66666627  0.10091032
   0.27778761  0.22223442  0.46948888
   0.44445103  0.05554754  0.46948681
   0.27777533  0.72222367  0.46948525
   0.44444339  0.55555561  0.46948753
   0.77776687  0.22223213  0.46948828
   0.94444427  0.05555473  0.46949032
   0.77776458  0.72221139  0.46948888
   0.94445146  0.55554797  0.46948681
Direct configuration=    10
   0.66971432 -0.00000026  0.10025278
   0.33028585  0.00000029  0.10025328
   0.00000026  0.33028468  0.10025278
  -0.00000029  0.66971315  0.10025328
   0.33028612  0.33028598  0.10025355
   0.66971302  0.66971288  0.10025355
   0.66666588  0.33333312  0.09947473
   0.33333263  0.66666637  0.10108142
   0.27780713  0.22225666  0.46934292
   0.44446316  0.05553477  0.46933822
   0.27777259  0.72222641  0.46933472
   0.44444168  0.55555732  0.46933986
   0.77774886  0.22225014  0.46934158
   0.94444410  0.05555490  0.46934617
   0.77774234  0.72219187  0.46934292
   0.94446423  0.55553584  0.46933822
Direct configuration=    11
   0.66971538 -0.00000052  0.10053984
   0.33028614  0.00000072  0.10054092
   0.00000052  0.33028362  0.10053984
  -0.00000072  0.66971286  0.10054092
   0.33028693  0.33028663  0.10054148
   0.66971237  0.66971207  0.10054148
   0.66666565  0.33333335  0.09976351
   0.33333245  0.66666655  0.10142363
   0.27784616  0.22230112  0.46905101
   0.44448741  0.05550921  0.46904106
   0.27776712  0.72223188  0.46903367
   0.44443826  0.55556074  0.46904453
   0.77771284  0.22228616  0.46904817
   0.94444375  0.05555525  0.46905787
   0.77769788  0.72215284  0.46905101
   0.94448979  0.55551159  0.46904106
Direct configuration=    12
   0.66971750 -0.00000102  0.10111396
   0.33028671  0.00000158  0.10111618
   0.00000102  0.33028150  0.10111396
  -0.00000158  0.66971229  0.10111618
   0.33028854  0.33028793  0.10111733
   0.66971107  0.66971046  0.10111733
   0.66666518  0.33333382  0.10034109
   0.33333207  0.66666693  0.10210804
   0.27792422  0.22239006  0.46846720
   0.44453590  0.05545811  0.46844673
   0.27775617  0.72224283  0.46843156
   0.44443142  0.55556758  0.46845387
   0.77764080  0.22235820  0.46846135
   0.94444304  0.05555596  0.46848128
   0.77760894  0.72207478  0.46846720
   0.94454089  0.55546310  0.46844673
Direct configuration=    13
   0.66972174 -0.00000202  0.10226221
   0.33028785  0.00000331  0.10226672
   0.00000202  0.33027726  0.10226221
  -0.00000331  0.66971115  0.10226672
   0.33029177  0.33029054  0.10226905
   0.66970846  0.66970723  0.10226905
   0.66666425  0.33333475  0.10149623
   0.33333132  0.66666768  0.10347688
   0.27808034  0.22256793  0.46729956
   0.44463290  0.05535591  0.46725807
   0.27773427  0.72226473  0.46722734
   0.44441775  0.55558125  0.46727253
   0.77749672  0.22250228  0.46728772
   0.94444163  0.05555737  0.46732809
   0.77743107  0.72191866  0.46729956
   0.94464309  0.55536610  0.46725807
Direct configuration=    14
   0.66973022 -0.00000403  0.10455870
   0.33029013  0.00000675  0.10456778
   0.00000403  0.33026878  0.10455870
  -0.00000675  0.66970887  0.10456778
   0.33029823  0.33029575  0.10457248
   0.66970325  0.66970077  0.10457248
   0.66666240  0.33333660  0.10380652
   0.33332982  0.66666918  0.10621454
   0.27839259  0.22292368  0.46496429
   0.44482688  0.05515150  0.46488075
   0.27769048  0.72230852  0.46481891
   0.44439040  0.55560860  0.46490987
   0.77720856  0.22279044  0.46494045
   0.94443881  0.05556019  0.46502172
   0.77707532  0.72160641  0.46496429
   0.94484750  0.55517212  0.46488075
Direct configuration=    15
   0.66974719 -0.00000805  0.10915167
   0.33029469  0.00001363  0.10916992
   0.00000805  0.33025181  0.10915167
  -0.00001363  0.66970431  0.10916992
   0.33031116  0.33030617  0.10917935
   0.66969283  0.66968784  0.10917935
   0.66665868  0.33334032  0.10842709
   0.33332683  0.66667217  0.11168986
   0.27901708  0.22363517  0.46029375
   0.44521486  0.05474268  0.46012611
   0.27760290  0.72239610  0.46000204
   0.44433570  0.55566330  0.46018454
   0.77663224  0.22336676  0.46024591
   0.94443316  0.05556584  0.46040896
   0.77636383  0.72098192  0.46029375
   0.94525632  0.55478414  0.46012611
Direct configuration=    16
   0.66974719 -0.00000805  0.10915280
   0.33029469  0.00001363  0.10917104
   0.00000805  0.33025181  0.10915280
  -0.00001363  0.66970431  0.10917104
   0.33031116  0.33030617  0.10918048
   0.66969283  0.66968784  0.10918048
   0.66665868  0.33334032  0.10842823
   0.33332683  0.66667217  0.11169120
   0.27901712  0.22363520  0.46029260
   0.44521487  0.05474266  0.46012494
   0.27760291  0.72239609  0.46000086
   0.44433569  0.55566331  0.46018338
   0.77663221  0.22336679  0.46024476
   0.94443315  0.05556585  0.46040783
   0.77636380  0.72098188  0.46029260
   0.94525634  0.55478413  0.46012494
Direct configuration=    17
   0.66974719 -0.00000806  0.10915618
   0.33029469  0.00001363  0.10917443
   0.00000806  0.33025181  0.10915618
  -0.00001363  0.66970431  0.10917443
   0.33031117  0.33030618  0.10918387
   0.66969282  0.66968783  0.10918387
   0.66665868  0.33334032  0.10843162
   0.33332682  0.66667218  0.11169523
   0.27901726  0.22363530  0.46028916
   0.44521491  0.05474262  0.46012145
   0.27760292  0.72239608  0.45999732
   0.44433565  0.55566335  0.46017991
   0.77663214  0.22336686  0.46024130
   0.94443312  0.05556588  0.46040443
   0.77636370  0.72098174  0.46028916
   0.94525638  0.55478409  0.46012145
Direct configuration=    18
   0.66974720 -0.00000807  0.10916294
   0.33029470  0.00001363  0.10918121
   0.00000807  0.33025180  0.10916294
  -0.00001363  0.66970430  0.10918121
   0.33031118  0.33030620  0.10919065
   0.66969280  0.66968782  0.10919065
   0.66665868  0.33334032  0.10843841
   0.33332682  0.66667218  0.11170327
   0.27901754  0.22363550  0.46028228
   0.44521499  0.05474253  0.46011446
   0.27760295  0.72239605  0.45999025
   0.44433557  0.55566343  0.46017296
   0.77663199  0.22336701  0.46023439
   0.94443306  0.05556594  0.46039763
   0.77636350  0.72098146  0.46028228
   0.94525647  0.55478401  0.46011446
Direct configuration=    19
   0.66974722 -0.00000810  0.10917646
   0.33029472  0.00001363  0.10919475
   0.00000810  0.33025178  0.10917646
  -0.00001363  0.66970428  0.10919475
   0.33031121  0.33030624  0.10920421
   0.66969276  0.66968779  0.10920421
   0.66665868  0.33334032  0.10845198
   0.33332681  0.66667219  0.11171937
   0.27901810  0.22363590  0.46026853
   0.44521514  0.05474235  0.46010048
   0.27760300  0.72239600  0.45997611
   0.44433540  0.55566360  0.46015906
   0.77663168  0.22336732  0.46022057
   0.94443294  0.05556606  0.46038402
   0.77636310  0.72098090  0.46026853
   0.94525665  0.55478386  0.46010048
Direct configuration=    20
   0.66974725 -0.00000815  0.10920350
   0.33029474  0.00001362  0.10922185
   0.00000815  0.33025175  0.10920350
  -0.00001362  0.66970426  0.10922185
   0.33031128  0.33030631  0.10923134
   0.66969269  0.66968772  0.10923134
   0.66665867  0.33334033  0.10847914
   0.33332679  0.66667221  0.11175155
   0.27901923  0.22363670  0.46024102
   0.44521545  0.05474200  0.46007253
   0.27760312  0.72239588  0.45994783
   0.44433508  0.55566392  0.46013125
   0.77663107  0.22336793  0.46019294
   0.94443269  0.05556631  0.46035682
   0.77636230  0.72097977  0.46024102
   0.94525700  0.55478355  0.46007253
Direct configuration=    21
   0.66974732 -0.00000825  0.10925759
   0.33029480  0.00001360  0.10927604
   0.00000825  0.33025168  0.10925759
  -0.00001360  0.66970420  0.10927604
   0.33031140  0.33030647  0.10928558
   0.66969253  0.66968760  0.10928558
   0.66665866  0.33334034  0.10853344
   0.33332675  0.66667225  0.11181592
   0.27902147  0.22363831  0.46018600
   0.44521607  0.05474129  0.46001662
   0.27760334  0.72239566  0.45989126
   0.44433443  0.55566457  0.46007565
   0.77662986  0.22336914  0.46013767
   0.94443220  0.05556680  0.46030241
   0.77636069  0.72097753  0.46018600
   0.94525771  0.55478293  0.46001662
Direct configuration=    22
   0.66974745 -0.00000846  0.10936576
   0.33029492  0.00001356  0.10938442
   0.00000846  0.33025155  0.10936576
  -0.00001356  0.66970408  0.10938442
   0.33031166  0.33030678  0.10939407
   0.66969222  0.66968734  0.10939407
   0.66665864  0.33334036  0.10864205
   0.33332668  0.66667232  0.11194465
   0.27902596  0.22364152  0.46007596
   0.44521731  0.05473988  0.45990479
   0.27760379  0.72239521  0.45977813
   0.44433313  0.55566587  0.45996443
   0.77662742  0.22337158  0.46002712
   0.94443121  0.05556779  0.46019359
   0.77635748  0.72097304  0.46007596
   0.94525912  0.55478169  0.45990479
Direct configuration=    23
   0.66974771 -0.00000887  0.10958210
   0.33029515  0.00001349  0.10960119
   0.00000887  0.33025129  0.10958210
  -0.00001349  0.66970385  0.10960119
   0.33031217  0.33030739  0.10961105
   0.66969161  0.66968683  0.10961105
   0.66665860  0.33334040  0.10885928
   0.33332653  0.66667247  0.11220213
   0.27903495  0.22364794  0.45985588
   0.44521979  0.05473706  0.45968115
   0.27760468  0.72239432  0.45955187
   0.44433052  0.55566848  0.45974201
   0.77662256  0.22337644  0.45980603
   0.94442924  0.05556976  0.45997594
   0.77635106  0.72096405  0.45985588
   0.94526194  0.55477921  0.45968115
Direct configuration=    24
   0.66974824 -0.00000969  0.11001478
   0.33029561  0.00001335  0.11003472
   0.00000969  0.33025076  0.11001478
  -0.00001335  0.66970339  0.11003472
   0.33031319  0.33030862  0.11004502
   0.66969038  0.66968581  0.11004502
   0.66665852  0.33334048  0.10929372
   0.33332623  0.66667277  0.11271707
   0.27905291  0.22366078  0.45941573
   0.44522474  0.05473141  0.45923386
   0.27760647  0.72239253  0.45909935
   0.44432532  0.55567368  0.45929716
   0.77661283  0.22338617  0.45936385
   0.94442530  0.05557370  0.45954065
   0.77633822  0.72094609  0.45941573
   0.94526759  0.55477426  0.45923386
Direct configuration=    25
   0.66974930 -0.00001133  0.11088015
   0.33029653  0.00001306  0.11090178
   0.00001133  0.33024970  0.11088015
  -0.00001306  0.66970247  0.11090178
   0.33031523  0.33031109  0.11091294
   0.66968791  0.66968377  0.11091294
   0.66665836  0.33334064  0.11016261
   0.33332562  0.66667338  0.11374696
   0.27908885  0.22368646  0.45853542
   0.44523465  0.05472011  0.45833928
   0.27761004  0.72238896  0.45819430
   0.44431490  0.55568410  0.45840747
   0.77659337  0.22340563  0.45847948
   0.94441743  0.05558157  0.45867007
   0.77631254  0.72091015  0.45853542
   0.94527889  0.55476435  0.45833928
Direct configuration=    26
   0.66975141 -0.00001462  0.11261088
   0.33029838  0.00001248  0.11263589
   0.00001462  0.33024759  0.11261088
  -0.00001248  0.66970062  0.11263589
   0.33031930  0.33031601  0.11264879
   0.66968299  0.66967970  0.11264879
   0.66665803  0.33334097  0.11190038
   0.33332442  0.66667458  0.11580674
   0.27916071  0.22373782  0.45677480
   0.44525446  0.05469752  0.45655011
   0.27761719  0.72238181  0.45638420
   0.44429407  0.55570493  0.45662807
   0.77655444  0.22344456  0.45671075
   0.94440167  0.05559733  0.45692891
   0.77626118  0.72083829  0.45677480
   0.94530148  0.55474454  0.45655011
Direct configuration=    27
   0.66975563 -0.00002120  0.11607234
   0.33030208  0.00001132  0.11610413
   0.00002120  0.33024337  0.11607234
  -0.00001132  0.66969692  0.11610413
   0.33032745  0.33032587  0.11612049
   0.66967313  0.66967155  0.11612049
   0.66665738  0.33334162  0.11537593
   0.33332201  0.66667699  0.11992630
   0.27930444  0.22384053  0.45325355
   0.44529408  0.05465233  0.45297178
   0.27763149  0.72236751  0.45276401
   0.44425242  0.55574658  0.45306929
   0.77647659  0.22352241  0.45317329
   0.94437016  0.05562884  0.45344660
   0.77615847  0.72069456  0.45325355
   0.94534667  0.55470492  0.45297178
Direct configuration=    28
   0.66976408 -0.00003435  0.12299525
   0.33030947  0.00000901  0.12304060
   0.00003435  0.33023492  0.12299525
  -0.00000901  0.66968953  0.12304060
   0.33034376  0.33034558  0.12306389
   0.66965342  0.66965524  0.12306389
   0.66665607  0.33334293  0.12232702
   0.33331720  0.66668180  0.12816542
   0.27959191  0.22404597  0.44621107
   0.44537333  0.05456195  0.44581513
   0.27766008  0.72233892  0.44552363
   0.44416911  0.55582989  0.44595172
   0.77632090  0.22367810  0.44609837
   0.94430714  0.05569186  0.44648196
   0.77595303  0.72040709  0.44621107
   0.94543705  0.55462567  0.44581513
Direct configuration=    29
   0.66978097 -0.00006066  0.13684109
   0.33032426  0.00000439  0.13691355
   0.00006066  0.33021803  0.13684109
  -0.00000439  0.66967474  0.13691355
   0.33037637  0.33038499  0.13695068
   0.66961401  0.66962263  0.13695068
   0.66665346  0.33334554  0.13622921
   0.33330758  0.66669142  0.14464366
   0.28016683  0.22445683  0.43212609
   0.44553182  0.05438120  0.43150181
   0.27771726  0.72228174  0.43104287
   0.44400249  0.55599651  0.43171658
   0.77600951  0.22398949  0.43194853
   0.94418109  0.05581791  0.43255269
   0.77554217  0.71983217  0.43212609
   0.94561780  0.55446718  0.43150181
Direct configuration=    30
   0.66981475 -0.00011327  0.16453275
   0.33035383 -0.00000486  0.16465944
   0.00011327  0.33018425  0.16453275
   0.00000486  0.66964517  0.16465944
   0.33044158  0.33046382  0.16472428
   0.66953518  0.66955742  0.16472428
   0.66664824  0.33335076  0.16403359
   0.33328833  0.66671067  0.17760015
   0.28131668  0.22527857  0.40395615
   0.44584881  0.05401969  0.40287519
   0.27783163  0.72216737  0.40208134
   0.44366926  0.55632974  0.40324630
   0.77538672  0.22461228  0.40364886
   0.94392901  0.05606999  0.40469416
   0.77472043  0.71868232  0.40395615
   0.94597931  0.55415019  0.40287519
Direct configuration=    31
   0.66980717 -0.00010145  0.15831358
   0.33034719 -0.00000279  0.15842809
   0.00010145  0.33019183  0.15831358
   0.00000279  0.66965181  0.15842809
   0.33042694  0.33044612  0.15848671
   0.66955288  0.66957206  0.15848671
   0.66664941  0.33334959  0.15778911
   0.33329265  0.66670635  0.17019857
   0.28105844  0.22509402  0.41028273
   0.44577762  0.05410088  0.40930434
   0.27780595  0.72219305  0.40858570
   0.44374410  0.55625490  0.40964033
   0.77552659  0.22447241  0.41000458
   0.94398562  0.05601338  0.41095081
   0.77490498  0.71894056  0.41028273
   0.94589812  0.55422138  0.40930434
Direct configuration=    32
   0.66981246 -0.00010969  0.16265002
   0.33035182 -0.00000424  0.16277302
   0.00010969  0.33018654  0.16265002
   0.00000424  0.66964718  0.16277302
   0.33043715  0.33045846  0.16283597
   0.66954054  0.66956185  0.16283597
   0.66664859  0.33335041  0.16214319
   0.33328964  0.66670936  0.17535946
   0.28123850  0.22522270  0.40587140
   0.44582726  0.05404427  0.40482149
   0.27782386  0.72217514  0.40405041
   0.44369191  0.55630709  0.40518197
   0.77542906  0.22456994  0.40557293
   0.94394615  0.05605285  0.40658824
   0.77477630  0.71876050  0.40587140
   0.94595473  0.55417174  0.40482149
Direct configuration=    33
   0.66974574 -0.00017595  0.16728250
   0.33036690 -0.00006065  0.16741390
   0.00017595  0.33025326  0.16728250
   0.00006065  0.66963210  0.16741390
   0.33044832  0.33051740  0.16748103
   0.66948160  0.66955068  0.16748103
   0.66664716  0.33335184  0.16676760
   0.33328386  0.66671514  0.18083797
   0.28089260  0.22484916  0.40115509
   0.44561934  0.05426533  0.40005382
   0.27785607  0.72214293  0.39924173
   0.44373620  0.55626280  0.40043258
   0.77573167  0.22426733  0.40084294
   0.94395230  0.05604670  0.40190449
   0.77514984  0.71910640  0.40115509
   0.94573367  0.55437966  0.40005382
Direct configuration=    34
   0.66975587 -0.00016589  0.16657869
   0.33036461 -0.00005208  0.16670882
   0.00016589  0.33024313  0.16657869
   0.00005208  0.66963439  0.16670882
   0.33044662  0.33050844  0.16677530
   0.66949056  0.66955238  0.16677530
   0.66664738  0.33335162  0.16606501
   0.33328474  0.66671426  0.18000562
   0.28094515  0.22490591  0.40187164
   0.44565093  0.05423174  0.40077817
   0.27785118  0.72214782  0.39997232
   0.44372947  0.55626953  0.40115415
   0.77568570  0.22431330  0.40156156
   0.94395136  0.05604764  0.40261609
   0.77509309  0.71905385  0.40187164
   0.94576726  0.55434807  0.40077817
Direct configuration=    35
   0.66968654 -0.00022082  0.16618461
   0.33037740 -0.00010056  0.16631311
   0.00022082  0.33031246  0.16618461
   0.00010056  0.66962160  0.16631311
   0.33044755  0.33054885  0.16637867
   0.66945015  0.66955145  0.16637867
   0.66664413  0.33335487  0.16564351
   0.33328136  0.66671764  0.17950376
   0.28049641  0.22449868  0.40226897
   0.44545057  0.05445541  0.40120611
   0.27785173  0.72214727  0.40041821
   0.44382265  0.55617635  0.40157316
   0.77600781  0.22399119  0.40196836
   0.94400029  0.05599871  0.40299008
   0.77550032  0.71950259  0.40226897
   0.94554359  0.55454843  0.40120611
Direct configuration=    36
   0.66947855 -0.00038563  0.16500237
   0.33041577 -0.00024600  0.16512600
   0.00038563  0.33052045  0.16500237
   0.00024600  0.66958323  0.16512600
   0.33045032  0.33067009  0.16518876
   0.66932891  0.66954868  0.16518876
   0.66663439  0.33336461  0.16437902
   0.33327125  0.66672775  0.17799816
   0.27915020  0.22327699  0.40346096
   0.44484949  0.05512639  0.40248990
   0.27785338  0.72214562  0.40175588
   0.44410218  0.55589682  0.40283017
   0.77697413  0.22302487  0.40318875
   0.94414707  0.05585193  0.40411204
   0.77672201  0.72084880  0.40346096
   0.94487261  0.55514951  0.40248990
Direct configuration=    37
   0.66906256 -0.00071524  0.16263788
   0.33049251 -0.00053688  0.16275177
   0.00071524  0.33093644  0.16263788
   0.00053688  0.66950649  0.16275177
   0.33045585  0.33091256  0.16280895
   0.66908644  0.66954315  0.16280895
   0.66661491  0.33338409  0.16185003
   0.33325103  0.66674797  0.17498697
   0.27645777  0.22083360  0.40584494
   0.44364732  0.05646835  0.40505749
   0.27785668  0.72214232  0.40443124
   0.44466125  0.55533775  0.40534420
   0.77890678  0.22109222  0.40562952
   0.94444063  0.05555837  0.40635598
   0.77916540  0.72354123  0.40584494
   0.94353065  0.55635168  0.40505749
Direct configuration=    38
   0.66929804 -0.00052866  0.16397633
   0.33044907 -0.00037223  0.16409574
   0.00052866  0.33070096  0.16397633
   0.00037223  0.66954993  0.16409574
   0.33045272  0.33077530  0.16415608
   0.66922370  0.66954628  0.16415608
   0.66662594  0.33337306  0.16328160
   0.33326247  0.66673653  0.17669150
   0.27798186  0.22221672  0.40449545
   0.44432782  0.05570871  0.40360406
   0.27785481  0.72214419  0.40291681
   0.44434478  0.55565422  0.40392110
   0.77781277  0.22218623  0.40424789
   0.94427445  0.05572455  0.40508577
   0.77778228  0.72201714  0.40449545
   0.94429029  0.55567118  0.40360406
Direct configuration=    39
   0.66924961 -0.00054663  0.16397432
   0.33047353 -0.00039430  0.16409241
   0.00054663  0.33074939  0.16397432
   0.00039430  0.66952547  0.16409241
   0.33046525  0.33079837  0.16415149
   0.66920063  0.66953375  0.16415149
   0.66662400  0.33337500  0.16322449
   0.33326281  0.66673619  0.17662380
   0.27787338  0.22222350  0.40449177
   0.44436542  0.05567595  0.40364520
   0.27780459  0.72219441  0.40298798
   0.44439831  0.55560069  0.40394883
   0.77778977  0.22220923  0.40425614
   0.94433511  0.05566389  0.40504837
   0.77777550  0.72212562  0.40449177
   0.94432305  0.55563358  0.40364520
Direct configuration=    40
   0.66910434 -0.00060055  0.16396830
   0.33054691 -0.00046051  0.16408242
   0.00060055  0.33089466  0.16396830
   0.00046051  0.66945209  0.16408242
   0.33050283  0.33086757  0.16413770
   0.66913143  0.66949617  0.16413770
   0.66661818  0.33338082  0.16305317
   0.33326381  0.66673519  0.17642068
   0.27754796  0.22224383  0.40448072
   0.44447820  0.05557765  0.40376861
   0.27765393  0.72234507  0.40320149
   0.44455888  0.55544012  0.40403204
   0.77772074  0.22227826  0.40428091
   0.94451709  0.05548191  0.40493620
   0.77775517  0.72245104  0.40448072
   0.94442135  0.55552080  0.40376861
Direct configuration=    41
   0.66903210 -0.00062736  0.16396531
   0.33058340 -0.00049343  0.16407746
   0.00062736  0.33096690  0.16396531
   0.00049343  0.66941560  0.16407746
   0.33052152  0.33090198  0.16413085
   0.66909702  0.66947748  0.16413085
   0.66661529  0.33338371  0.16296798
   0.33326431  0.66673469  0.17631968
   0.27738614  0.22225394  0.40447523
   0.44453428  0.05552876  0.40382997
   0.27757901  0.72241999  0.40330766
   0.44463873  0.55536027  0.40407342
   0.77768642  0.22231258  0.40429322
   0.94460758  0.05539142  0.40488041
   0.77774506  0.72261286  0.40447523
   0.94447024  0.55546472  0.40382997
Direct configuration=    42
   0.66899328 -0.00063033  0.16397719
   0.33061360 -0.00050297  0.16408705
   0.00063033  0.33100572  0.16397719
   0.00050297  0.66938540  0.16408705
   0.33053606  0.33091250  0.16413799
   0.66908650  0.66946294  0.16413799
   0.66661121  0.33338779  0.16287835
   0.33326805  0.66673095  0.17621624
   0.27740923  0.22224601  0.40445578
   0.44452183  0.05554039  0.40388519
   0.27759417  0.72240483  0.40341327
   0.44461707  0.55538193  0.40410587
   0.77769569  0.22230331  0.40429420
   0.94459029  0.05540871  0.40480566
   0.77775299  0.72258977  0.40445578
   0.94445861  0.55547717  0.40388519
Direct configuration=    43
   0.66887680 -0.00063925  0.16401283
   0.33070420 -0.00053159  0.16411584
   0.00063925  0.33112220  0.16401283
   0.00053159  0.66929480  0.16411584
   0.33057966  0.33094406  0.16415943
   0.66905494  0.66941934  0.16415943
   0.66659898  0.33340002  0.16260945
   0.33327929  0.66671971  0.17590591
   0.27747853  0.22222220  0.40439743
   0.44448446  0.05557526  0.40405084
   0.27763962  0.72235938  0.40373009
   0.44455210  0.55544690  0.40420324
   0.77772352  0.22227548  0.40429715
   0.94453842  0.05546058  0.40458141
   0.77777680  0.72252047  0.40439743
   0.94442374  0.55551454  0.40405084
Direct configuration=    44
   0.66864384 -0.00065707  0.16408411
   0.33088540 -0.00058883  0.16417342
   0.00065707  0.33135516  0.16408411
   0.00058883  0.66911360  0.16417342
   0.33066687  0.33100717  0.16420229
   0.66899183  0.66933213  0.16420229
   0.66657451  0.33342449  0.16207167
   0.33330177  0.66669723  0.17528526
   0.27761712  0.22217459  0.40428074
   0.44440973  0.05564501  0.40438215
   0.27773053  0.72226847  0.40436374
   0.44442214  0.55557686  0.40439797
   0.77777917  0.22221983  0.40430304
   0.94443469  0.05556431  0.40413290
   0.77782441  0.72238188  0.40428074
   0.94435399  0.55558927  0.40438215
Direct configuration=    45
   0.66855335 -0.00066400  0.16411181
   0.33095579 -0.00061106  0.16419579
   0.00066400  0.33144565  0.16411181
   0.00061106  0.66904321  0.16419579
   0.33070075  0.33103169  0.16421895
   0.66896731  0.66929825  0.16421895
   0.66656500  0.33343400  0.16186276
   0.33331050  0.66668850  0.17504416
   0.27767095  0.22215610  0.40423540
   0.44438069  0.05567210  0.40451084
   0.27776585  0.72223315  0.40460989
   0.44437166  0.55562734  0.40447361
   0.77780079  0.22219821  0.40430533
   0.94439439  0.05560461  0.40395867
   0.77784290  0.72232805  0.40423540
   0.94432690  0.55561831  0.40451084
Direct configuration=    46
   0.66885877 -0.00050551  0.16416122
   0.33084512 -0.00045512  0.16424117
   0.00050551  0.33114023  0.16416122
   0.00045512  0.66915388  0.16424117
   0.33062179  0.33083178  0.16425659
   0.66916722  0.66937721  0.16425659
   0.66655970  0.33343930  0.16166576
   0.33333663  0.66666237  0.17483879
   0.27777235  0.22228063  0.40421853
   0.44441498  0.05563677  0.40456027
   0.27772973  0.72226927  0.40471143
   0.44441162  0.55558738  0.40450359
   0.77773173  0.22226727  0.40430928
   0.94439101  0.05560799  0.40389558
   0.77771837  0.72222665  0.40421853
   0.94436223  0.55558402  0.40456027
Direct configuration=    47
   0.66934609 -0.00025263  0.16424005
   0.33066855 -0.00020631  0.16431358
   0.00025263  0.33065291  0.16424005
   0.00020631  0.66933045  0.16431358
   0.33049580  0.33051280  0.16431666
   0.66948620  0.66950320  0.16431666
   0.66655125  0.33344775  0.16135144
   0.33337833  0.66662067  0.17451113
   0.27793414  0.22247932  0.40419160
   0.44446970  0.05558040  0.40463914
   0.27767210  0.72232690  0.40487344
   0.44447537  0.55552363  0.40455143
   0.77762153  0.22237747  0.40431559