   16   16  128    2
  0.1949369E+02  0.4900000E-09  0.4900000E-09  0.1500000E-08  0.5000000E-15
  1.000000000000000E-004
  CAR 
 Lattice                                 
     56     43     48
 
  0.0000000E+00  0.0000000E+00  0.0000000E+00  0.6944444E-02
      1        -19.924152      -19.924152   1.000000   1.000000
      2        -15.990333      -15.990333   1.000000   1.000000
      3        -14.594803      -14.594804   1.000000   1.000000
      4        -14.589606      -14.589606   1.000000   1.000000
      5        -14.588908      -14.588908   1.000000   1.000000
      6        -13.605676      -13.605676   1.000000   1.000000
      7        -13.604758      -13.604758   1.000000   1.000000
      8        -13.601271      -13.601271   1.000000   1.000000
      9        -11.742269      -11.742269   1.000000   1.000000
     10        -11.501861      -11.501862   1.000000   1.000000
     11        -11.495130      -11.495130   1.000000   1.000000
     12         -9.262532       -9.262533   1.000000   1.000000
     13         -9.254622       -9.254622   1.000000   1.000000
     14         -8.151406       -8.151406   1.000000   1.000000
     15         -7.376417       -7.376417   1.000000   1.000000
     16         -6.711090       -6.711089   1.000000   1.000000
     17         -6.710697       -6.710697   1.000000   1.000000
     18         -6.708230       -6.708230   1.000000   1.000000
     19         -6.665787       -6.665786   1.000000   1.000000
     20         -3.271397       -3.271397   1.000000   1.000000
     21         -3.267222       -3.267222   1.000000   1.000000
     22         -2.709604       -2.709604   1.000000   1.000000
     23         -2.684035       -2.684035   1.000000   1.000000
     24         -2.671805       -2.671806   1.000000   1.000000
     25         -1.332914       -1.332914   1.000000   1.000000
     26         -1.318745       -1.318745   1.000000   1.000000
     27         -0.438804       -0.438803   0.998917   0.998917
     28         -0.379872       -0.379872   0.987223   0.987223
     29         -0.140582       -0.140581   0.124834   0.124833
     30          0.887429        0.887429   0.000000   0.000000
     31          0.985125        0.985125   0.000000   0.000000
     32          1.424720        1.424720   0.000000   0.000000
     33          1.516473        1.516473   0.000000   0.000000
     34          1.544794        1.544793   0.000000   0.000000
     35          2.222438        2.222438   0.000000   0.000000
     36          2.223079        2.223079   0.000000   0.000000
     37          3.079938        3.079816   0.000000   0.000000
     38          3.670079        3.670028   0.000000   0.000000
     39          4.578513        4.578498   0.000000   0.000000
     40          4.861552        4.861172   0.000000   0.000000
     41          7.019869        7.019704   0.000000   0.000000
     42          7.311198        7.311198   0.000000   0.000000
     43          7.313649        7.313649   0.000000   0.000000
     44          7.316027        7.316026   0.000000   0.000000
     45          7.767004        7.766681   0.000000   0.000000
     46          8.202151        8.202152   0.000000   0.000000
     47          8.207927        8.207928   0.000000   0.000000
     48          8.886458        8.886452   0.000000   0.000000
 
  0.8333333E-01 -0.3594254E-17  0.0000000E+00  0.2777778E-01
      1        -19.882644      -19.882644   1.000000   1.000000
      2        -15.957178      -15.957178   1.000000   1.000000
      3        -15.118225      -15.118225   1.000000   1.000000
      4        -14.742545      -14.742545   1.000000   1.000000
      5        -14.738844      -14.738844   1.000000   1.000000
      6        -13.387078      -13.387078   1.000000   1.000000
      7        -13.383956      -13.383956   1.000000   1.000000
      8        -13.015486      -13.015486   1.000000   1.000000
      9        -12.184434      -12.184434   1.000000   1.000000
     10        -11.531037      -11.531037   1.000000   1.000000
     11        -11.083103      -11.083103   1.000000   1.000000
     12         -9.333595       -9.333595   1.000000   1.000000
     13         -9.172434       -9.172434   1.000000   1.000000
     14         -8.098401       -8.098401   1.000000   1.000000
     15         -7.205938       -7.205938   1.000000   1.000000
     16         -6.839494       -6.839494   1.000000   1.000000
     17         -6.837744       -6.837744   1.000000   1.000000
     18         -6.668125       -6.668124   1.000000   1.000000
     19         -6.614047       -6.614047   1.000000   1.000000
     20         -3.441394       -3.441394   1.000000   1.000000
     21         -3.359859       -3.359859   1.000000   1.000000
     22         -2.955767       -2.955767   1.000000   1.000000
     23         -2.737172       -2.737172   1.000000   1.000000
     24         -2.711122       -2.711123   1.000000   1.000000
     25         -1.796144       -1.796145   1.000000   1.000000
     26         -1.696914       -1.696914   1.000000   1.000000
     27         -0.870272       -0.870271   1.000000   1.000000
     28         -0.278536       -0.278536   0.788090   0.788089
     29          0.307986        0.307986   0.000000   0.000000
     30          0.936947        0.936947   0.000000   0.000000
     31          1.076905        1.076905   0.000000   0.000000
     32          1.536382        1.536382   0.000000   0.000000
     33          1.615894        1.615894   0.000000   0.000000
     34          1.772413        1.772412   0.000000   0.000000
     35          2.558758        2.558756   0.000000   0.000000
     36          2.598182        2.598181   0.000000   0.000000
     37          3.164968        3.164848   0.000000   0.000000
     38          3.737672        3.737619   0.000000   0.000000
     39          4.734312        4.734279   0.000000   0.000000
     40          4.928210        4.927851   0.000000   0.000000
     41          7.068473        7.068307   0.000000   0.000000
     42          7.333197        7.333197   0.000000   0.000000
     43          7.505443        7.505443   0.000000   0.000000
     44          7.506758        7.506758   0.000000   0.000000
     45          7.814467        7.814151   0.000000   0.000000
     46          8.233199        8.233197   0.000000   0.000000
     47          8.385088        8.385088   0.000000   0.000000
     48          8.634440        8.634432   0.000000   0.000000
 
 -0.8333333E-01  0.8333333E-01  0.0000000E+00  0.1388889E-01
      1        -19.882642      -19.882642   1.000000   1.000000
      2        -15.957153      -15.957153   1.000000   1.000000
      3        -15.118389      -15.118389   1.000000   1.000000
      4        -14.741501      -14.741501   1.000000   1.000000
      5        -14.739458      -14.739458   1.000000   1.000000
      6        -13.386271      -13.386271   1.000000   1.000000
      7        -13.386129      -13.386129   1.000000   1.000000
      8        -13.014384      -13.014384   1.000000   1.000000
      9        -12.184280      -12.184280   1.000000   1.000000
     10        -11.534095      -11.534096   1.000000   1.000000
     11        -11.079741      -11.079741   1.000000   1.000000
     12         -9.328339       -9.328338   1.000000   1.000000
     13         -9.178587       -9.178587   1.000000   1.000000
     14         -8.098740       -8.098740   1.000000   1.000000
     15         -7.205242       -7.205242   1.000000   1.000000
     16         -6.839046       -6.839046   1.000000   1.000000
     17         -6.836783       -6.836782   1.000000   1.000000
     18         -6.669550       -6.669549   1.000000   1.000000
     19         -6.614158       -6.614158   1.000000   1.000000
     20         -3.438342       -3.438341   1.000000   1.000000
     21         -3.362957       -3.362957   1.000000   1.000000
     22         -2.965648       -2.965648   1.000000   1.000000
     23         -2.719257       -2.719257   1.000000   1.000000
     24         -2.717826       -2.717827   1.000000   1.000000
     25         -1.773146       -1.773147   1.000000   1.000000
     26         -1.729728       -1.729728   1.000000   1.000000
     27         -0.851006       -0.851005   1.000000   1.000000
     28         -0.266941       -0.266940   0.737556   0.737555
     29          0.293371        0.293371   0.000000   0.000000
     30          0.924295        0.924295   0.000000   0.000000
     31          1.083581        1.083581   0.000000   0.000000
     32          1.528972        1.528972   0.000000   0.000000
     33          1.604451        1.604451   0.000000   0.000000
     34          1.777448        1.777448   0.000000   0.000000
     35          2.582201        2.582197   0.000000   0.000000
     36          2.582396        2.582396   0.000000   0.000000
     37          3.171899        3.171780   0.000000   0.000000
     38          3.740969        3.740915   0.000000   0.000000
     39          4.721653        4.721617   0.000000   0.000000
     40          4.932195        4.931839   0.000000   0.000000
     41          7.068233        7.068067   0.000000   0.000000
     42          7.333904        7.333903   0.000000   0.000000
     43          7.503384        7.503383   0.000000   0.000000
     44          7.508298        7.508297   0.000000   0.000000
     45          7.814764        7.814447   0.000000   0.000000
     46          8.229746        8.229744   0.000000   0.000000
     47          8.389428        8.389429   0.000000   0.000000
     48          8.642609        8.642599   0.000000   0.000000
 
  0.1666667E+00 -0.1089067E-16  0.0000000E+00  0.2777778E-01
      1        -19.758123      -19.758123   1.000000   1.000000
      2        -15.892752      -15.892752   1.000000   1.000000
      3        -15.856864      -15.856864   1.000000   1.000000
      4        -15.009299      -15.009300   1.000000   1.000000
      5        -15.005993      -15.005993   1.000000   1.000000
      6        -12.916527      -12.916527   1.000000   1.000000
      7        -12.913390      -12.913390   1.000000   1.000000
      8        -12.724018      -12.724018   1.000000   1.000000
      9        -12.059181      -12.059181   1.000000   1.000000
     10        -11.611281      -11.611281   1.000000   1.000000
     11        -10.678351      -10.678351   1.000000   1.000000
     12         -9.398198       -9.398198   1.000000   1.000000
     13         -8.940208       -8.940208   1.000000   1.000000
     14         -7.943849       -7.943849   1.000000   1.000000
     15         -7.200604       -7.200604   1.000000   1.000000
     16         -7.198643       -7.198643   1.000000   1.000000
     17         -6.816738       -6.816738   1.000000   1.000000
     18         -6.544630       -6.544630   1.000000   1.000000
     19         -6.459525       -6.459525   1.000000   1.000000
     20         -3.927368       -3.927368   1.000000   1.000000
     21         -3.614192       -3.614191   1.000000   1.000000
     22         -3.578505       -3.578505   1.000000   1.000000
     23         -2.831137       -2.831137   1.000000   1.000000
     24         -2.808899       -2.808900   1.000000   1.000000
     25         -2.538479       -2.538479   1.000000   1.000000
     26         -2.408039       -2.408039   1.000000   1.000000
     27         -1.572664       -1.572664   1.000000   1.000000
     28         -0.435995       -0.435995   0.998763   0.998763
     29          0.358921        0.358922   0.000000   0.000000
     30          1.469272        1.469271   0.000000   0.000000
     31          1.557366        1.557366   0.000000   0.000000
     32          1.762019        1.762019   0.000000   0.000000
     33          1.990676        1.990676   0.000000   0.000000
     34          2.538340        2.538340   0.000000   0.000000
     35          3.112317        3.112269   0.000000   0.000000
     36          3.333297        3.333298   0.000000   0.000000
     37          3.523418        3.523339   0.000000   0.000000
     38          3.945511        3.945452   0.000000   0.000000
     39          5.063618        5.063324   0.000000   0.000000
     40          5.210858        5.210772   0.000000   0.000000
     41          7.203913        7.203753   0.000000   0.000000
     42          7.389242        7.389242   0.000000   0.000000
     43          7.747751        7.747718   0.000000   0.000000
     44          7.986695        7.986438   0.000000   0.000000
     45          8.055922        8.055922   0.000000   0.000000
     46          8.058068        8.058068   0.000000   0.000000
     47          8.293756        8.293740   0.000000   0.000000
     48          8.383962        8.383891   0.000000   0.000000
 
 -0.1666667E+00  0.1666667E+00  0.0000000E+00  0.1388889E-01
      1        -19.758118      -19.758118   1.000000   1.000000
      2        -15.893072      -15.893072   1.000000   1.000000
      3        -15.856397      -15.856397   1.000000   1.000000
      4        -15.008379      -15.008379   1.000000   1.000000
      5        -15.006765      -15.006765   1.000000   1.000000
      6        -12.915733      -12.915733   1.000000   1.000000
      7        -12.915336      -12.915336   1.000000   1.000000
      8        -12.724515      -12.724515   1.000000   1.000000
      9        -12.058223      -12.058223   1.000000   1.000000
     10        -11.614364      -11.614365   1.000000   1.000000
     11        -10.672918      -10.672918   1.000000   1.000000
     12         -9.394778       -9.394778   1.000000   1.000000
     13         -8.946796       -8.946796   1.000000   1.000000
     14         -7.944637       -7.944637   1.000000   1.000000
     15         -7.199985       -7.199985   1.000000   1.000000
     16         -7.197842       -7.197842   1.000000   1.000000
     17         -6.814761       -6.814761   1.000000   1.000000
     18         -6.546094       -6.546093   1.000000   1.000000
     19         -6.460239       -6.460238   1.000000   1.000000
     20         -3.924652       -3.924652   1.000000   1.000000
     21         -3.617055       -3.617055   1.000000   1.000000
     22         -3.585174       -3.585174   1.000000   1.000000
     23         -2.819701       -2.819702   1.000000   1.000000
     24         -2.809600       -2.809600   1.000000   1.000000
     25         -2.528730       -2.528731   1.000000   1.000000
     26         -2.425678       -2.425678   1.000000   1.000000
     27         -1.560272       -1.560272   1.000000   1.000000
     28         -0.421876       -0.421876   0.997650   0.997650
     29          0.370192        0.370192   0.000000   0.000000
     30          1.450973        1.450973   0.000000   0.000000
     31          1.511208        1.511208   0.000000   0.000000
     32          1.798373        1.798373   0.000000   0.000000
     33          1.961911        1.961911   0.000000   0.000000
     34          2.534551        2.534551   0.000000   0.000000
     35          3.104696        3.104647   0.000000   0.000000
     36          3.349121        3.349121   0.000000   0.000000
     37          3.543886        3.543810   0.000000   0.000000
     38          3.962656        3.962594   0.000000   0.000000
     39          5.030649        5.030414   0.000000   0.000000
     40          5.212705        5.212561   0.000000   0.000000
     41          7.202198        7.202038   0.000000   0.000000
     42          7.390425        7.390424   0.000000   0.000000
     43          7.755737        7.755696   0.000000   0.000000
     44          7.999173        7.998915   0.000000   0.000000
     45          8.052900        8.052900   0.000000   0.000000
     46          8.059880        8.059879   0.000000   0.000000
     47          8.288510        8.288498   0.000000   0.000000
     48          8.393954        8.393894   0.000000   0.000000
 
  0.2500000E+00 -0.8390927E-17  0.0000000E+00  0.2777778E-01
      1        -19.550970      -19.550970   1.000000   1.000000
      2        -16.630889      -16.630889   1.000000   1.000000
      3        -15.698087      -15.698087   1.000000   1.000000
      4        -15.252564      -15.252564   1.000000   1.000000
      5        -15.249378      -15.249378   1.000000   1.000000
      6        -13.245240      -13.245241   1.000000   1.000000
      7        -12.342741      -12.342741   1.000000   1.000000
      8        -12.339630      -12.339630   1.000000   1.000000
      9        -11.706920      -11.706920   1.000000   1.000000
     10        -11.018635      -11.018635   1.000000   1.000000
     11        -10.528835      -10.528835   1.000000   1.000000
     12         -9.195787       -9.195788   1.000000   1.000000
     13         -8.605797       -8.605797   1.000000   1.000000
     14         -7.734320       -7.734320   1.000000   1.000000
     15         -7.732222       -7.732222   1.000000   1.000000
     16         -7.691167       -7.691167   1.000000   1.000000
     17         -6.427612       -6.427612   1.000000   1.000000
     18         -6.341675       -6.341675   1.000000   1.000000
     19         -6.206227       -6.206226   1.000000   1.000000
     20         -4.665575       -4.665575   1.000000   1.000000
     21         -4.311409       -4.311409   1.000000   1.000000
     22         -3.986101       -3.986101   1.000000   1.000000
     23         -3.348757       -3.348757   1.000000   1.000000
     24         -3.060985       -3.060985   1.000000   1.000000
     25         -2.922276       -2.922276   1.000000   1.000000
     26         -2.896260       -2.896261   1.000000   1.000000
     27         -2.359190       -2.359190   1.000000   1.000000
     28         -0.715780       -0.715780   1.000000   1.000000
     29          0.202832        0.202833   0.000000   0.000000
     30          1.909611        1.909611   0.000000   0.000000
     31          1.968717        1.968717   0.000000   0.000000
     32          2.438113        2.438111   0.000000   0.000000
     33          2.736988        2.736988   0.000000   0.000000
     34          3.506919        3.506858   0.000000   0.000000
     35          3.569421        3.569399   0.000000   0.000000
     36          4.064499        4.064456   0.000000   0.000000
     37          4.220289        4.220288   0.000000   0.000000
     38          4.360523        4.360449   0.000000   0.000000
     39          5.368460        5.368143   0.000000   0.000000
     40          5.702041        5.701998   0.000000   0.000000
     41          6.682123        6.682119   0.000000   0.000000
     42          7.405730        7.405682   0.000000   0.000000
     43          7.488541        7.488424   0.000000   0.000000
     44          7.655446        7.655376   0.000000   0.000000
     45          8.167301        8.167107   0.000000   0.000000
     46          8.242326        8.242283   0.000000   0.000000
     47          8.349990        8.349949   0.000000   0.000000
     48          8.424287        8.424185   0.000000   0.000000
 
 -0.2500000E+00  0.2500000E+00  0.0000000E+00  0.1388889E-01
      1        -19.550959      -19.550959   1.000000   1.000000
      2        -16.630852      -16.630852   1.000000   1.000000
      3        -15.697726      -15.697727   1.000000   1.000000
      4        -15.251633      -15.251633   1.000000   1.000000
      5        -15.250306      -15.250306   1.000000   1.000000
      6        -13.246348      -13.246348   1.000000   1.000000
      7        -12.341968      -12.341968   1.000000   1.000000
      8        -12.341574      -12.341574   1.000000   1.000000
      9        -11.710004      -11.710005   1.000000   1.000000
     10        -11.017641      -11.017641   1.000000   1.000000
     11        -10.521897      -10.521897   1.000000   1.000000
     12         -9.193458       -9.193458   1.000000   1.000000
     13         -8.613347       -8.613347   1.000000   1.000000
     14         -7.733558       -7.733558   1.000000   1.000000
     15         -7.731516       -7.731515   1.000000   1.000000
     16         -7.692121       -7.692121   1.000000   1.000000
     17         -6.423047       -6.423047   1.000000   1.000000
     18         -6.343240       -6.343240   1.000000   1.000000
     19         -6.209482       -6.209481   1.000000   1.000000
     20         -4.663206       -4.663206   1.000000   1.000000
     21         -4.315748       -4.315748   1.000000   1.000000
     22         -3.988721       -3.988720   1.000000   1.000000
     23         -3.347089       -3.347089   1.000000   1.000000
     24         -3.064161       -3.064161   1.000000   1.000000
     25         -2.909476       -2.909476   1.000000   1.000000
     26         -2.898462       -2.898462   1.000000   1.000000
     27         -2.354629       -2.354629   1.000000   1.000000
     28         -0.705025       -0.705025   1.000000   1.000000
     29          0.219055        0.219055   0.000000   0.000000
     30          1.920998        1.920997   0.000000   0.000000
     31          1.930684        1.930683   0.000000   0.000000
     32          2.439424        2.439422   0.000000   0.000000
     33          2.692576        2.692576   0.000000   0.000000
     34          3.489981        3.489923   0.000000   0.000000
     35          3.577630        3.577605   0.000000   0.000000
     36          4.064128        4.064086   0.000000   0.000000
     37          4.249809        4.249809   0.000000   0.000000
     38          4.405246        4.405166   0.000000   0.000000
     39          5.333947        5.333668   0.000000   0.000000
     40          5.678123        5.678045   0.000000   0.000000
     41          6.686837        6.686832   0.000000   0.000000
     42          7.408564        7.408477   0.000000   0.000000
     43          7.490901        7.490804   0.000000   0.000000
     44          7.671567        7.671520   0.000000   0.000000
     45          8.168082        8.167931   0.000000   0.000000
     46          8.247785        8.247699   0.000000   0.000000
     47          8.334608        8.334554   0.000000   0.000000
     48          8.430978        8.430878   0.000000   0.000000
 
  0.3333333E+00 -0.3195697E-16  0.0000000E+00  0.2777778E-01
      1        -19.261736      -19.261736   1.000000   1.000000
      2        -17.307322      -17.307322   1.000000   1.000000
      3        -15.486740      -15.486740   1.000000   1.000000
      4        -15.435966      -15.435966   1.000000   1.000000
      5        -15.431560      -15.431560   1.000000   1.000000
      6        -13.724252      -13.724252   1.000000   1.000000
      7        -11.792184      -11.792184   1.000000   1.000000
      8        -11.721816      -11.721816   1.000000   1.000000
      9        -11.719483      -11.719483   1.000000   1.000000
     10        -10.575516      -10.575517   1.000000   1.000000
     11         -9.931649       -9.931649   1.000000   1.000000
     12         -8.755245       -8.755245   1.000000   1.000000
     13         -8.362247       -8.362247   1.000000   1.000000
     14         -8.359863       -8.359863   1.000000   1.000000
     15         -8.228281       -8.228281   1.000000   1.000000
     16         -7.342698       -7.342698   1.000000   1.000000
     17         -6.255950       -6.255950   1.000000   1.000000
     18         -6.064035       -6.064035   1.000000   1.000000
     19         -5.867426       -5.867426   1.000000   1.000000
     20         -5.581657       -5.581657   1.000000   1.000000
     21         -5.032072       -5.032072   1.000000   1.000000
     22         -4.422455       -4.422455   1.000000   1.000000
     23         -4.048095       -4.048095   1.000000   1.000000
     24         -3.453213       -3.453213   1.000000   1.000000
     25         -3.200293       -3.200293   1.000000   1.000000
     26         -3.013729       -3.013729   1.000000   1.000000
     27         -2.929102       -2.929102   1.000000   1.000000
     28         -0.951096       -0.951096   1.000000   1.000000
     29          0.057907        0.057908   0.000038   0.000038
     30          2.248383        2.248382   0.000000   0.000000
     31          2.271597        2.271597   0.000000   0.000000
     32          3.202784        3.202774   0.000000   0.000000
     33          3.665461        3.665460   0.000000   0.000000
     34          4.039159        4.039075   0.000000   0.000000
     35          4.527471        4.527434   0.000000   0.000000
     36          4.678001        4.677995   0.000000   0.000000
     37          4.886672        4.886599   0.000000   0.000000
     38          5.135816        5.135808   0.000000   0.000000
     39          5.552284        5.552207   0.000000   0.000000
     40          5.753573        5.753410   0.000000   0.000000
     41          6.107644        6.107531   0.000000   0.000000
     42          6.922701        6.922601   0.000000   0.000000
     43          7.382521        7.382456   0.000000   0.000000
     44          7.643931        7.643914   0.000000   0.000000
     45          7.673120        7.673097   0.000000   0.000000
     46          7.885623        7.885494   0.000000   0.000000
     47          7.951453        7.951441   0.000000   0.000000
     48          8.230697        8.230674   0.000000   0.000000
 
 -0.3333333E+00  0.3333333E+00  0.0000000E+00  0.1388889E-01
      1        -19.261717      -19.261717   1.000000   1.000000
      2        -17.307275      -17.307275   1.000000   1.000000
      3        -15.485896      -15.485896   1.000000   1.000000
      4        -15.433911      -15.433912   1.000000   1.000000
      5        -15.433778      -15.433778   1.000000   1.000000
      6        -13.726010      -13.726010   1.000000   1.000000
      7        -11.795651      -11.795652   1.000000   1.000000
      8        -11.722299      -11.722299   1.000000   1.000000
      9        -11.720026      -11.720026   1.000000   1.000000
     10        -10.568570      -10.568570   1.000000   1.000000
     11         -9.930546       -9.930546   1.000000   1.000000
     12         -8.752526       -8.752526   1.000000   1.000000
     13         -8.360832       -8.360832   1.000000   1.000000
     14         -8.359727       -8.359727   1.000000   1.000000
     15         -8.237186       -8.237187   1.000000   1.000000
     16         -7.343506       -7.343506   1.000000   1.000000
     17         -6.250334       -6.250334   1.000000   1.000000
     18         -6.065672       -6.065672   1.000000   1.000000
     19         -5.872278       -5.872277   1.000000   1.000000
     20         -5.579519       -5.579519   1.000000   1.000000
     21         -5.035488       -5.035488   1.000000   1.000000
     22         -4.424811       -4.424810   1.000000   1.000000
     23         -4.048030       -4.048031   1.000000   1.000000
     24         -3.444601       -3.444601   1.000000   1.000000
     25         -3.200223       -3.200223   1.000000   1.000000
     26         -3.006141       -3.006142   1.000000   1.000000
     27         -2.930013       -2.930014   1.000000   1.000000
     28         -0.943557       -0.943556   1.000000   1.000000
     29          0.074338        0.074338   0.000014   0.000014
     30          2.254765        2.254765   0.000000   0.000000
     31          2.259625        2.259625   0.000000   0.000000
     32          3.183421        3.183411   0.000000   0.000000
     33          3.619103        3.619103   0.000000   0.000000
     34          4.026711        4.026628   0.000000   0.000000
     35          4.517029        4.516991   0.000000   0.000000
     36          4.686624        4.686616   0.000000   0.000000
     37          4.960249        4.960173   0.000000   0.000000
     38          5.158857        5.158857   0.000000   0.000000
     39          5.497686        5.497592   0.000000   0.000000
     40          5.737415        5.737276   0.000000   0.000000
     41          6.100563        6.100446   0.000000   0.000000
     42          6.919058        6.918943   0.000000   0.000000
     43          7.380789        7.380720   0.000000   0.000000
     44          7.649399        7.649391   0.000000   0.000000
     45          7.690003        7.689983   0.000000   0.000000
     46          7.883927        7.883785   0.000000   0.000000
     47          7.912729        7.912728   0.000000   0.000000
     48          8.229683        8.229657   0.000000   0.000000
 
  0.4166667E+00  0.5348692E-16  0.0000000E+00  0.2777778E-01
      1        -18.891277      -18.891277   1.000000   1.000000
      2        -17.911979      -17.911979   1.000000   1.000000
      3        -15.548760      -15.548760   1.000000   1.000000
      4        -15.546164      -15.546164   1.000000   1.000000
      5        -15.250305      -15.250305   1.000000   1.000000
      6        -14.121920      -14.121920   1.000000   1.000000
      7        -11.846882      -11.846882   1.000000   1.000000
      8        -11.130604      -11.130604   1.000000   1.000000
      9        -11.127302      -11.127302   1.000000   1.000000
     10        -10.646873      -10.646873   1.000000   1.000000
     11         -8.974890       -8.974890   1.000000   1.000000
     12         -8.972910       -8.972910   1.000000   1.000000
     13         -8.819256       -8.819256   1.000000   1.000000
     14         -8.294777       -8.294778   1.000000   1.000000
     15         -7.898274       -7.898274   1.000000   1.000000
     16         -6.908128       -6.908128   1.000000   1.000000
     17         -6.611241       -6.611241   1.000000   1.000000
     18         -6.373833       -6.373834   1.000000   1.000000
     19         -5.760766       -5.760766   1.000000   1.000000
     20         -5.719037       -5.719037   1.000000   1.000000
     21         -5.404393       -5.404393   1.000000   1.000000
     22         -4.877788       -4.877788   1.000000   1.000000
     23         -4.576064       -4.576064   1.000000   1.000000