   8   8   0  16
  0.3866977E+02  0.4880000E-09  0.4880000E-09  0.1500000E-08  0.5000000E-15
  1.000000000000000E-004
  CAR 
 Graphene                                
     13.81870583    -23.60503932  301     -2.13408478      1.00000000
    -23.605  0.0000E+00  0.0000E+00
    -23.480  0.0000E+00  0.0000E+00
    -23.356  0.0000E+00  0.0000E+00
    -23.231  0.0000E+00  0.0000E+00
    -23.106  0.0000E+00  0.0000E+00
    -22.981  0.0000E+00  0.0000E+00
    -22.857  0.0000E+00  0.0000E+00
    -22.732  0.0000E+00  0.0000E+00
    -22.607  0.0000E+00  0.0000E+00
    -22.482  0.1854E-18  0.2313E-19
    -22.358  0.8647E-13  0.1079E-13
    -22.233  0.2369E-08  0.2955E-09
    -22.108  0.3861E-05  0.4820E-06
    -21.983  0.4450E-03  0.5600E-04
    -21.859  0.4996E-02  0.6792E-03
    -21.734  0.1105E-01  0.2058E-02
    -21.609  0.1209E-01  0.3566E-02
    -21.484  0.1173E-01  0.5030E-02
    -21.360  0.1282E-01  0.6629E-02
    -21.235  0.1155E-01  0.8070E-02
    -21.110  0.1154E-01  0.9509E-02
    -20.985  0.1467E-01  0.1134E-01
    -20.861  0.8554E-02  0.1241E-01
    -20.736  0.1417E-01  0.1417E-01
    -20.611  0.1430E-01  0.1596E-01
    -20.486  0.7975E-02  0.1695E-01
    -20.362  0.1308E-01  0.1859E-01
    -20.237  0.1622E-01  0.2061E-01
    -20.112  0.1036E-01  0.2190E-01
    -19.987  0.7904E-02  0.2289E-01
    -19.863  0.1591E-01  0.2487E-01
    -19.738  0.1639E-01  0.2692E-01
    -19.613  0.8111E-02  0.2793E-01
    -19.488  0.9810E-02  0.2915E-01
    -19.364  0.1350E-01  0.3084E-01
    -19.239  0.1790E-01  0.3307E-01
    -19.114  0.1227E-01  0.3460E-01
    -18.989  0.5877E-02  0.3533E-01
    -18.865  0.1205E-01  0.3684E-01
    -18.740  0.1784E-01  0.3906E-01
    -18.615  0.1472E-01  0.4090E-01
    -18.490  0.1166E-01  0.4235E-01
    -18.366  0.8188E-02  0.4337E-01
    -18.241  0.7909E-02  0.4436E-01
    -18.116  0.2264E-01  0.4718E-01
    -17.991  0.1408E-01  0.4894E-01
    -17.867  0.1095E-01  0.5031E-01
    -17.742  0.1019E-01  0.5158E-01
    -17.617  0.9022E-02  0.5270E-01
    -17.492  0.1395E-01  0.5444E-01
    -17.368  0.2310E-01  0.5733E-01
    -17.243  0.1207E-01  0.5883E-01
    -17.118  0.1001E-01  0.6008E-01
    -16.994  0.9376E-02  0.6125E-01
    -16.869  0.1288E-01  0.6286E-01
    -16.744  0.1881E-01  0.6520E-01
    -16.619  0.2266E-01  0.6803E-01
    -16.495  0.1622E-01  0.7005E-01
    -16.370  0.1386E-01  0.7178E-01
    -16.245  0.3743E-02  0.7225E-01
    -16.120  0.8817E-02  0.7335E-01
    -15.996  0.2344E-01  0.7627E-01
    -15.871  0.7367E-02  0.7719E-01
    -15.746  0.2844E-03  0.7723E-01
    -15.621  0.1999E-02  0.7748E-01
    -15.497  0.9344E-02  0.7864E-01
    -15.372  0.1745E-01  0.8082E-01
    -15.247  0.1430E-01  0.8260E-01
    -15.122  0.1199E-01  0.8410E-01
    -14.998  0.1024E-01  0.8538E-01
    -14.873  0.1142E-01  0.8680E-01
    -14.748  0.1904E-01  0.8918E-01
    -14.623  0.1441E-01  0.9097E-01
    -14.499  0.1618E-01  0.9299E-01
    -14.374  0.1930E-01  0.9540E-01
    -14.249  0.1396E-01  0.9714E-01
    -14.124  0.1300E-01  0.9876E-01
    -14.000  0.9633E-02  0.9996E-01
    -13.875  0.2212E-01  0.1027E+00
    -13.750  0.1099E-01  0.1041E+00
    -13.625  0.8146E-02  0.1051E+00
    -13.501  0.9640E-02  0.1063E+00
    -13.376  0.1799E-01  0.1086E+00
    -13.251  0.1323E-01  0.1102E+00
    -13.126  0.5632E-02  0.1109E+00
    -13.002  0.1030E-01  0.1122E+00
    -12.877  0.1450E-01  0.1140E+00
    -12.752  0.1318E-01  0.1156E+00
    -12.627  0.1881E-01  0.1180E+00
    -12.503  0.1057E-01  0.1193E+00
    -12.378  0.9231E-02  0.1205E+00
    -12.253  0.1821E-01  0.1227E+00
    -12.128  0.1615E-01  0.1248E+00
    -12.004  0.1099E-01  0.1261E+00
    -11.879  0.1426E-01  0.1279E+00
    -11.754  0.1978E-01  0.1304E+00
    -11.629  0.2071E-01  0.1330E+00
    -11.505  0.4645E-02  0.1335E+00
    -11.380  0.5556E-02  0.1342E+00
    -11.255  0.2224E-01  0.1370E+00
    -11.130  0.2957E-01  0.1407E+00
    -11.006  0.9750E-02  0.1419E+00
    -10.881  0.8907E-02  0.1430E+00
    -10.756  0.1595E-01  0.1450E+00
    -10.631  0.1934E-01  0.1474E+00
    -10.507  0.1469E-01  0.1493E+00
    -10.382  0.1773E-01  0.1515E+00
    -10.257  0.1505E-01  0.1533E+00
    -10.132  0.2198E-01  0.1561E+00
    -10.008  0.1938E-01  0.1585E+00
     -9.883  0.1817E-01  0.1608E+00
     -9.758  0.2209E-01  0.1635E+00
     -9.634  0.4031E-01  0.1686E+00
     -9.509  0.3333E-01  0.1727E+00
     -9.384  0.1813E-01  0.1750E+00
     -9.259  0.2742E-01  0.1784E+00
     -9.135  0.4214E-01  0.1836E+00
     -9.010  0.3692E-01  0.1883E+00
     -8.885  0.3179E-01  0.1922E+00
     -8.760  0.2947E-01  0.1959E+00
     -8.636  0.3985E-01  0.2009E+00
     -8.511  0.5392E-01  0.2076E+00
     -8.386  0.4636E-01  0.2134E+00
     -8.261  0.2352E-01  0.2163E+00
     -8.137  0.2855E-01  0.2199E+00
     -8.012  0.3360E-01  0.2241E+00
     -7.887  0.3601E-01  0.2286E+00
     -7.762  0.1989E-01  0.2310E+00
     -7.638  0.2750E-01  0.2345E+00
     -7.513  0.3867E-01  0.2393E+00
     -7.388  0.2169E-01  0.2420E+00
     -7.263  0.1723E-01  0.2441E+00
     -7.139  0.2892E-01  0.2478E+00
     -7.014  0.2647E-01  0.2511E+00
     -6.889  0.2522E-01  0.2542E+00
     -6.764  0.2432E-01  0.2572E+00
     -6.640  0.2736E-01  0.2606E+00
     -6.515  0.1673E-01  0.2627E+00
     -6.390  0.1607E-01  0.2647E+00
     -6.265  0.2782E-01  0.2682E+00
     -6.141  0.3681E-01  0.2728E+00
     -6.016  0.1652E-01  0.2749E+00
     -5.891  0.1052E-01  0.2762E+00
     -5.766  0.2095E-01  0.2788E+00
     -5.642  0.3007E-01  0.2825E+00
     -5.517  0.2414E-01  0.2856E+00
     -5.392  0.2352E-01  0.2885E+00
     -5.267  0.1982E-01  0.2910E+00
     -5.143  0.1323E-01  0.2926E+00
     -5.018  0.1273E-01  0.2942E+00
     -4.893  0.2161E-01  0.2969E+00
     -4.768  0.2445E-01  0.2999E+00
     -4.644  0.1954E-01  0.3024E+00
     -4.519  0.1573E-01  0.3043E+00
     -4.394  0.7719E-02  0.3053E+00
     -4.269  0.1884E-01  0.3077E+00
     -4.145  0.3009E-01  0.3114E+00
     -4.020  0.7354E-02  0.3123E+00
     -3.895  0.4232E-02  0.3129E+00
     -3.770  0.3065E-02  0.3132E+00
     -3.646  0.8681E-02  0.3143E+00
     -3.521  0.1196E-01  0.3158E+00
     -3.396  0.1001E-01  0.3171E+00
     -3.271  0.2013E-02  0.3173E+00
     -3.147  0.3981E-02  0.3178E+00
     -3.022  0.1957E-02  0.3181E+00
     -2.897  0.2245E-02  0.3183E+00
     -2.772  0.8289E-02  0.3194E+00
     -2.648  0.2788E-02  0.3197E+00
     -2.523  0.7042E-04  0.3197E+00
     -2.398  0.5201E-06  0.3197E+00
     -2.274  0.1079E-03  0.3197E+00
     -2.149  0.1752E-02  0.3200E+00
     -2.024  0.2327E-02  0.3202E+00
     -1.899  0.2642E-03  0.3203E+00
     -1.775  0.2045E-05  0.3203E+00
     -1.650  0.4288E-04  0.3203E+00
     -1.525  0.2205E-02  0.3206E+00
     -1.400  0.8297E-02  0.3216E+00
     -1.276  0.3137E-02  0.3220E+00
     -1.151  0.3535E-02  0.3224E+00
     -1.026  0.2677E-02  0.3228E+00
     -0.901  0.2316E-02  0.3230E+00
     -0.777  0.1737E-01  0.3252E+00
     -0.652  0.1657E-01  0.3273E+00
     -0.527  0.7948E-02  0.3283E+00
     -0.402  0.2023E-01  0.3308E+00
     -0.278  0.2258E-01  0.3336E+00
     -0.153  0.2130E-01  0.3363E+00
     -0.028  0.2342E-01  0.3392E+00
      0.097  0.8872E-02  0.3403E+00
      0.221  0.1335E-01  0.3420E+00
      0.346  0.1000E-01  0.3432E+00
      0.471  0.8485E-02  0.3443E+00
      0.596  0.9794E-02  0.3455E+00
      0.720  0.2220E-01  0.3483E+00
      0.845  0.1180E-01  0.3497E+00
      0.970  0.2982E-02  0.3501E+00
      1.095  0.1381E-01  0.3518E+00
      1.219  0.2051E-01  0.3544E+00
      1.344  0.1522E-01  0.3563E+00
      1.469  0.1895E-01  0.3586E+00
      1.594  0.1766E-01  0.3609E+00
      1.718  0.2506E-01  0.3640E+00
      1.843  0.1984E-01  0.3665E+00
      1.968  0.1037E-01  0.3677E+00
      2.093  0.2069E-01  0.3703E+00
      2.217  0.3076E-01  0.3742E+00
      2.342  0.2724E-01  0.3776E+00
      2.467  0.2839E-01  0.3811E+00
      2.592  0.3109E-01  0.3850E+00
      2.716  0.3585E-01  0.3895E+00
      2.841  0.3364E-01  0.3936E+00
      2.966  0.2825E-01  0.3972E+00
      3.091  0.2850E-01  0.4007E+00
      3.215  0.4125E-01  0.4059E+00
      3.340  0.3167E-01  0.4098E+00
      3.465  0.3530E-01  0.4142E+00
      3.590  0.3897E-01  0.4191E+00
      3.714  0.2797E-01  0.4226E+00
      3.839  0.2881E-01  0.4262E+00
      3.964  0.2981E-01  0.4299E+00
      4.089  0.4153E-01  0.4351E+00
      4.213  0.3323E-01  0.4392E+00
      4.338  0.3801E-01  0.4440E+00
      4.463  0.2840E-01  0.4475E+00
      4.588  0.3415E-01  0.4518E+00
      4.712  0.4750E-01  0.4577E+00
      4.837  0.5211E-01  0.4642E+00
      4.962  0.3181E-01  0.4682E+00
      5.086  0.2955E-01  0.4718E+00
      5.211  0.4231E-01  0.4771E+00
      5.336  0.6132E-01  0.4848E+00
      5.461  0.6634E-01  0.4930E+00
      5.585  0.6556E-01  0.5012E+00
      5.710  0.4673E-01  0.5071E+00
      5.835  0.7938E-01  0.5170E+00
      5.960  0.6031E-01  0.5245E+00
      6.084  0.4765E-01  0.5304E+00
      6.209  0.9080E-01  0.5417E+00
      6.334  0.1087E+00  0.5553E+00
      6.459  0.8869E-01  0.5664E+00
      6.583  0.8927E-01  0.5775E+00
      6.708  0.8616E-01  0.5883E+00
      6.833  0.6613E-01  0.5965E+00
      6.958  0.6479E-01  0.6046E+00
      7.082  0.7707E-01  0.6142E+00
      7.207  0.1020E+00  0.6269E+00
      7.332  0.7520E-01  0.6363E+00
      7.457  0.6641E-01  0.6446E+00
      7.581  0.5609E-01  0.6516E+00
      7.706  0.5432E-01  0.6584E+00
      7.831  0.6058E-01  0.6659E+00
      7.956  0.6810E-01  0.6744E+00
      8.080  0.6404E-01  0.6824E+00
      8.205  0.7628E-01  0.6919E+00
      8.330  0.7134E-01  0.7008E+00
      8.455  0.8243E-01  0.7111E+00
      8.579  0.8573E-01  0.7218E+00
      8.704  0.7420E-01  0.7311E+00
      8.829  0.9403E-01  0.7428E+00
      8.954  0.7396E-01  0.7520E+00
      9.078  0.6415E-01  0.7600E+00
      9.203  0.6362E-01  0.7679E+00
      9.328  0.8126E-01  0.7781E+00
      9.453  0.9540E-01  0.7900E+00
      9.577  0.9977E-01  0.8024E+00
      9.702  0.7605E-01  0.8119E+00
      9.827  0.7455E-01  0.8212E+00
      9.952  0.7043E-01  0.8300E+00
     10.076  0.5602E-01  0.8370E+00
     10.201  0.6168E-01  0.8447E+00
     10.326  0.9292E-01  0.8563E+00
     10.451  0.9266E-01  0.8678E+00
     10.575  0.9202E-01  0.8793E+00
     10.700  0.9233E-01  0.8908E+00
     10.825  0.7295E-01  0.8999E+00
     10.950  0.8220E-01  0.9102E+00
     11.074  0.1084E+00  0.9237E+00
     11.199  0.5899E-01  0.9311E+00
     11.324  0.5321E-01  0.9377E+00
     11.449  0.5642E-01  0.9447E+00
     11.573  0.4911E-01  0.9509E+00
     11.698  0.2502E-01  0.9540E+00
     11.823  0.1899E-01  0.9564E+00
     11.948  0.1261E-01  0.9579E+00
     12.072  0.6601E-02  0.9588E+00
     12.197  0.8222E-02  0.9598E+00
     12.322  0.1722E-02  0.9600E+00
     12.447  0.2597E-04  0.9600E+00
     12.571  0.2207E-07  0.9600E+00
     12.696  0.9397E-12  0.9600E+00
     12.821  0.2967E-17  0.9600E+00
     12.945  0.0000E+00  0.9600E+00
     13.070  0.0000E+00  0.9600E+00
     13.195  0.0000E+00  0.9600E+00
     13.320  0.0000E+00  0.9600E+00
     13.444  0.0000E+00  0.9600E+00
     13.569  0.0000E+00  0.9600E+00
     13.694  0.0000E+00  0.9600E+00
     13.819  0.0000E+00  0.9600E+00
