Lattice                                 
           1
     4.130941    2.385000    0.000000
    -4.130941    2.385000    0.000000
     0.000000    0.000000   15.000000
   B    C 
     4    11
Direct configuration=     1
   0.00415361  0.00267210  0.12034134
   0.35695335  0.00285503  0.09748893
   0.00423858  0.35550699  0.09749256
   0.65142295  0.65006557  0.09747688
   0.32808646  0.32671938  0.10030508
   0.68027775  0.00278085  0.10027562
   0.00416530  0.67883808  0.10026559
   0.99999933  0.49999967  0.33373333
   0.16666633  0.33333267  0.33373333
   0.99999933  0.99999967  0.33373333
   0.16666633  0.83333267  0.33373333
   0.49999933  0.49999967  0.33373333
   0.66666633  0.33333267  0.33373333
   0.49999933  0.99999967  0.33373333
   0.66666633  0.83333267  0.33373333
Direct configuration=     2
   0.00418571  0.00276838  0.11977929
   0.35638868  0.00301149  0.09768200
   0.00396364  0.35473402  0.09768440
   0.65218840  0.65057813  0.09767306
   0.32629932  0.32459887  0.10028035
   0.68235656  0.00309172  0.10025744
   0.00390614  0.68064909  0.10024942
   0.00012775  0.49998811  0.33373910
   0.16689426  0.33396322  0.33379230
   0.99999845  0.99999300  0.33362474
   0.16706070  0.83310312  0.33379512
   0.50002745  0.50015173  0.33374194
   0.66666583  0.33333786  0.33368268
   0.49986259  0.99987089  0.33373870
   0.66603519  0.83292770  0.33379211
Direct configuration=     3
   0.00416617  0.00270977  0.12012142
   0.35673241  0.00291625  0.09756448
   0.00413100  0.35520454  0.09756763
   0.65172246  0.65026612  0.09755364
   0.32738720  0.32588967  0.10029540
   0.68109114  0.00290249  0.10026851
   0.00406390  0.67954668  0.10025926
   0.00004958  0.49999515  0.33373559
   0.16675552  0.33357939  0.33375641
   0.99999899  0.99999706  0.33369084
   0.16682064  0.83324285  0.33375751
   0.50001033  0.50005917  0.33373670
   0.66666614  0.33333470  0.33371351
   0.49994583  0.99994928  0.33373543
   0.66641938  0.83317421  0.33375633
Direct configuration=     4
   0.00418295  0.00277494  0.11965218
   0.35700353  0.00300774  0.09774022
   0.00394459  0.35535333  0.09774201
   0.65159062  0.64995979  0.09773255
   0.32736479  0.32565748  0.10025628
   0.68129769  0.00308254  0.10023611
   0.00389910  0.67959238  0.10022858
  -0.00009104  0.49999646  0.33374967
   0.16663797  0.33320141  0.33379852
   0.99999998  0.00000265  0.33361044
   0.16657223  0.83336760  0.33380197
   0.50000008  0.49991163  0.33375314
   0.66666914  0.33333228  0.33366364
   0.50008546  0.00009127  0.33374913
   0.66680358  0.83343583  0.33379823
Direct configuration=     5
   0.00418646  0.00278854  0.11955427
   0.35706010  0.00302683  0.09777690
   0.00390569  0.35538437  0.09777840
   0.65156311  0.64989587  0.09776988
   0.32736011  0.32560903  0.10024812
   0.68134079  0.00312011  0.10022935
   0.00386471  0.67960191  0.10022218
  -0.00012038  0.49999674  0.33375261
   0.16661344  0.33312254  0.33380731
   0.00000019  0.00000382  0.33359366
   0.16652040  0.83339364  0.33381125
   0.49999794  0.49988085  0.33375657
   0.66666977  0.33333178  0.33365323
   0.50011460  0.00012090  0.33375198
   0.66688375  0.83349042  0.33380698
Direct configuration=     6
   0.00419034  0.00280534  0.11938732
   0.35715907  0.00304463  0.09783326
   0.00386265  0.35545860  0.09783431
   0.65149620  0.64978749  0.09782725
   0.32741397  0.32561857  0.10024026
   0.68132496  0.00315452  0.10022380
   0.00382971  0.67955480  0.10021718
  -0.00009076  0.49999904  0.33375861
   0.16661857  0.33316205  0.33381829
   0.00000156  0.00000373  0.33357277
   0.16655287  0.83338795  0.33382290
   0.49999848  0.49990872  0.33376325
   0.66666958  0.33333250  0.33363772
   0.50008941  0.00009278  0.33375787
   0.66684407  0.83345662  0.33381789
Direct configuration=     7
   0.00420198  0.00285572  0.11888648
   0.35745597  0.00309804  0.09800233
   0.00373352  0.35568128  0.09800203
   0.65129547  0.64946238  0.09799936
   0.32757556  0.32564717  0.10021668
   0.68127746  0.00325775  0.10020717
   0.00372471  0.67941347  0.10020219
  -0.00000191  0.50000596  0.33377664
   0.16663396  0.33328057  0.33385123
   0.00000566  0.00000345  0.33351010
   0.16665028  0.83337088  0.33385786
   0.50000012  0.49999233  0.33378329
   0.66666902  0.33333466  0.33359118
   0.50001385  0.00000843  0.33377551
   0.66672502  0.83335522  0.33385062
Direct configuration=     8
   0.00422526  0.00295650  0.11788481
   0.35804978  0.00320485  0.09834047
   0.00347527  0.35612664  0.09833748
   0.65089400  0.64881215  0.09834357
   0.32789873  0.32570439  0.10016952
   0.68118246  0.00346422  0.10017390
   0.00351471  0.67913081  0.10017222
   0.00017580  0.50001978  0.33381268
   0.16666475  0.33351761  0.33391713
   0.00001387  0.00000290  0.33338476
   0.16684509  0.83333674  0.33392779
   0.50000339  0.50015957  0.33382338
   0.66666788  0.33333899  0.33349809
   0.49986274 -0.00016026  0.33381080
   0.66648694  0.83315243  0.33391608
Direct configuration=     9
   0.00421919  0.00293022  0.11814598
   0.35789495  0.00317700  0.09825230
   0.00354261  0.35601052  0.09825002
   0.65099868  0.64898169  0.09825382
   0.32781447  0.32568947  0.10018181
   0.68120723  0.00341039  0.10018258
   0.00356947  0.67920451  0.10018003
   0.00012947  0.50001618  0.33380328
   0.16665673  0.33345581  0.33389995
   0.00001173  0.00000305  0.33341744
   0.16679429  0.83334564  0.33390955
   0.50000254  0.50011596  0.33381293
   0.66666817  0.33333786  0.33352236
   0.49990214 -0.00011628  0.33380160
   0.66654902  0.83320530  0.33389901
Direct configuration=    10
   0.00421701  0.00292447  0.11783222
   0.35786815  0.00313466  0.09831061
   0.00359410  0.35603505  0.09830792
   0.65098251  0.64900770  0.09831291
   0.32784471  0.32580078  0.10021545
   0.68109846  0.00332225  0.10021941
   0.00363371  0.67917368  0.10021743
   0.00005755  0.50001922  0.33381544
   0.16672225  0.33349940  0.33389676
   0.00000602  0.00000269  0.33342808
   0.16678546  0.83328894  0.33390646
   0.49999505  0.50004539  0.33382515
   0.66667382  0.33333876  0.33351545
   0.49996825 -0.00004905  0.33381362
   0.66651361  0.83322339  0.33389575
Direct configuration=    11
   0.00421047  0.00290721  0.11689093
   0.35778773  0.00300767  0.09848552
   0.00374857  0.35610864  0.09848162
   0.65093401  0.64908573  0.09849017
   0.32793545  0.32613472  0.10031638
   0.68077214  0.00305782  0.10032991
   0.00382646  0.67908118  0.10032961
  -0.00015819  0.50002835  0.33385194
   0.16691883  0.33363017  0.33388721
  -0.00001109  0.00000161  0.33346000
   0.16675897  0.83311885  0.33389718
   0.49997259  0.49983368  0.33386182
   0.66669075  0.33334144  0.33349473
   0.50016659  0.00015261  0.33384969
   0.66640739  0.83327766  0.33388597
Direct configuration=    12
   0.00420746  0.00289927  0.11645806
   0.35775075  0.00294926  0.09856596
   0.00381961  0.35614248  0.09856151
   0.65091171  0.64912162  0.09857168
   0.32797717  0.32628829  0.10036279
   0.68062207  0.00293622  0.10038072
   0.00391510  0.67903864  0.10038120
  -0.00025741  0.50003254  0.33386872
   0.16700923  0.33369031  0.33388281
  -0.00001896  0.00000112  0.33347468
   0.16674679  0.83304063  0.33389291
   0.49996226  0.49973632  0.33387868
   0.66669853  0.33334268  0.33348520
   0.50025781  0.00024534  0.33386627
   0.66635855  0.83330261  0.33388147
Direct configuration=    13
   0.00420544  0.00288877  0.11616906
   0.35772581  0.00291196  0.09860782
   0.00387961  0.35616314  0.09860330
   0.65088651  0.64915062  0.09861378
   0.32797724  0.32636689  0.10040530
   0.68054485  0.00286217  0.10042536
   0.00397668  0.67902717  0.10042615
  -0.00018455  0.50000821  0.33387417
   0.16690664  0.33361629  0.33387769
  -0.00000518  0.00000394  0.33349749
   0.16675451  0.83313123  0.33388743
   0.50000033  0.49982514  0.33388371
   0.66668920  0.33334207  0.33349343
   0.50018295  0.00018711  0.33387163
   0.66642062  0.83328263  0.33387634
Direct configuration=    14
   0.00420002  0.00286072  0.11539719
   0.35765919  0.00281234  0.09871959
   0.00403985  0.35621831  0.09871492
   0.65081922  0.64922807  0.09872622
   0.32797742  0.32657680  0.10051884
   0.68033861  0.00266441  0.10054457
   0.00414116  0.67899654  0.10054622
   0.00001002  0.49994320  0.33388873
   0.16663265  0.33341861  0.33386401
   0.00003164  0.00001148  0.33355844
   0.16677516  0.83337322  0.33387278
   0.50010203  0.50006235  0.33389715
   0.66666428  0.33334043  0.33351542
   0.49998303  0.00003158  0.33388595
   0.66658639  0.83322926  0.33386263
Direct configuration=    15
   0.00419858  0.00285244  0.11529423
   0.35772399  0.00282592  0.09872719
   0.00404167  0.35626716  0.09872295
   0.65075048  0.64916918  0.09873330
   0.32796908  0.32654937  0.10054015
   0.68036407  0.00270034  0.10056527
   0.00412392  0.67899040  0.10056676
   0.00004750  0.49999200  0.33387908
   0.16666825  0.33341320  0.33386511
   0.00001955  0.00000973  0.33357751
   0.16675713  0.83335209  0.33387327
   0.50003979  0.50006012  0.33388683
   0.66667787  0.33334304  0.33354085
   0.49997129 -0.00001921  0.33387638
   0.66660751  0.83326157  0.33386379
Direct configuration=    16
   0.00419516  0.00283278  0.11504988
   0.35787778  0.00285813  0.09874521
   0.00404598  0.35638307  0.09874199
   0.65058734  0.64902942  0.09875011
   0.32794928  0.32648427  0.10059072
   0.68042449  0.00278561  0.10061440
   0.00408300  0.67897582  0.10061551
   0.00013644  0.50010781  0.33385617
   0.16675274  0.33340036  0.33386773
  -0.00000914  0.00000559  0.33362275
   0.16671435  0.83330192  0.33387443
   0.49989207  0.50005481  0.33386235
   0.66671014  0.33334924  0.33360120
   0.49994343 -0.00013975  0.33385367
   0.66665761  0.83333825  0.33386654
Direct configuration=    17
   0.00418586  0.00280762  0.11491334
   0.35801191  0.00289799  0.09875435
   0.00402403  0.35647309  0.09875199
   0.65046661  0.64890639  0.09875805
   0.32795139  0.32641782  0.10061784
   0.68049384  0.00288095  0.10063924
   0.00402315  0.67896122  0.10063991
   0.00008760  0.50006028  0.33383696
   0.16673298  0.33342498  0.33387051
   0.00001184  0.00000922  0.33365840
   0.16672260  0.83329995  0.33387605
   0.49996463  0.50003889  0.33384184
   0.66668950  0.33334632  0.33365003
   0.49998486 -0.00006604  0.33383466
   0.66660987  0.83330866  0.33386950
Direct configuration=    18
   0.00417812  0.00278669  0.11479972
   0.35812352  0.00293116  0.09876196
   0.00400577  0.35654800  0.09876031
   0.65036615  0.64880402  0.09876465
   0.32795314  0.32636252  0.10064041
   0.68055155  0.00296028  0.10065991
   0.00397335  0.67894908  0.10066021
   0.00004696  0.50002073  0.33382099
   0.16671654  0.33344547  0.33387283
   0.00002929  0.00001225  0.33368806
   0.16672946  0.83329831  0.33387740
   0.50002501  0.50002563  0.33382477
   0.66667234  0.33334389  0.33369066
   0.50001934 -0.00000471  0.33381884
   0.66657015  0.83328403  0.33387195
Direct configuration=    19
   0.00416853  0.00276928  0.11477424
   0.35812720  0.00294159  0.09876961
   0.00399061  0.35654433  0.09876820
   0.65037559  0.64880313  0.09877173
   0.32797245  0.32636208  0.10063686
   0.68055987  0.00297673  0.10065466
   0.00395431  0.67894262  0.10065465
   0.00002357  0.49999730  0.33382141
   0.16671269  0.33344154  0.33387120
   0.00001317  0.00000996  0.33370160
   0.16676127  0.83332259  0.33387561
   0.50002970  0.50003788  0.33382496
   0.66668954  0.33334628  0.33369806
   0.49998860  0.00000008  0.33381944
   0.66659358  0.83327196  0.33387042
Direct configuration=    20
   0.00416322  0.00275965  0.11476016
   0.35812923  0.00294736  0.09877385
   0.00398223  0.35654230  0.09877256
   0.65038081  0.64880264  0.09877564
   0.32798312  0.32636184  0.10063490
   0.68056448  0.00298582  0.10065175
   0.00394378  0.67893905  0.10065158
   0.00001064  0.49998435  0.33382165
   0.16671056  0.33343936  0.33387030
   0.00000426  0.00000869  0.33370908
   0.16677885  0.83333602  0.33387462
   0.50003229  0.50004465  0.33382507
   0.66669905  0.33334760  0.33370216
   0.49997161  0.00000273  0.33381978
   0.66660653  0.83326528  0.33386957
Direct configuration=    21
   0.00415645  0.00274787  0.11473759
   0.35812457  0.00295707  0.09878252
   0.00396843  0.35653001  0.09878149
   0.65039782  0.64880898  0.09878360
   0.32800061  0.32636511  0.10062850
   0.68056604  0.00299675  0.10064324
   0.00392949  0.67893067  0.10064270
   0.00001938  0.49999086  0.33382389
   0.16670935  0.33343636  0.33386886
   0.00000772  0.00000943  0.33372233
   0.16677194  0.83333440  0.33387307
   0.50003006  0.50004462  0.33382713
   0.66669634  0.33334745  0.33370734
   0.49997567 -0.00000163  0.33382218
   0.66660679  0.83326939  0.33386822
Direct configuration=    22
   0.00413747  0.00271484  0.11467433
   0.35811150  0.00298429  0.09880682
   0.00392975  0.35649556  0.09880652
   0.65044551  0.64882677  0.09880591
   0.32804961  0.32637426  0.10061058
   0.68057044  0.00302738  0.10061940
   0.00388945  0.67890717  0.10061782
   0.00004388  0.50000912  0.33383019
   0.16670594  0.33342796  0.33386482
   0.00001741  0.00001150  0.33375947
   0.16675256  0.83332988  0.33386872
   0.50002384  0.50004453  0.33383288
   0.66668876  0.33334702  0.33372186
   0.49998703 -0.00001386  0.33382891
   0.66660752  0.83328091  0.33386445
Direct configuration=    23
   0.00413971  0.00271872  0.11468176
   0.35811303  0.00298109  0.09880397
   0.00393429  0.35649961  0.09880358
   0.65043990  0.64882468  0.09880329
   0.32804385  0.32637319  0.10061269
   0.68056992  0.00302378  0.10062220
   0.00389416  0.67890993  0.10062074
   0.00004100  0.50000697  0.33382945
   0.16670634  0.33342895  0.33386529
   0.00001627  0.00001125  0.33375510
   0.16675484  0.83333041  0.33386923
   0.50002457  0.50004454  0.33383221
   0.66668965  0.33334707  0.33372016
   0.49998569 -0.00001242  0.33382812
   0.66660743  0.83327955  0.33386489
Direct configuration=    24
   0.00415209  0.00274103  0.11466855
   0.35811731  0.00298025  0.09880587
   0.00394302  0.35649943  0.09880577
   0.65042698  0.64881724  0.09880457
   0.32802688  0.32637259  0.10061052
   0.68055654  0.00301451  0.10061845
   0.00390901  0.67890397  0.10061666
   0.00004235  0.50001555  0.33383106
   0.16671652  0.33344075  0.33386886
   0.00002275  0.00001254  0.33375611
   0.16674519  0.83331329  0.33387287
   0.50002379  0.50003315  0.33383389
   0.66668399  0.33334671  0.33372123
   0.50000519 -0.00000629  0.33382977
   0.66658907  0.83328263  0.33386850
Direct configuration=    25
   0.00416157  0.00275810  0.11465843
   0.35812058  0.00297960  0.09880732
   0.00394970  0.35649929  0.09880745
   0.65041709  0.64881155  0.09880556
   0.32801390  0.32637213  0.10060886
   0.68054629  0.00300741  0.10061557
   0.00392038  0.67889940  0.10061353
   0.00004339  0.50002211  0.33383230
   0.16672430  0.33344979  0.33387158
   0.00002771  0.00001352  0.33375689
   0.16673780  0.83330019  0.33387565
   0.50002320  0.50002444  0.33383517
   0.66667965  0.33334643  0.33372205
   0.50002011 -0.00000161  0.33383103
   0.66657501  0.83328498  0.33387126
Direct configuration=    26
   0.00416992  0.00277357  0.11464519
   0.35812278  0.00297460  0.09880773
   0.00395840  0.35650341  0.09880806
   0.65040510  0.64880559  0.09880547
   0.32799924  0.32637419  0.10060749
   0.68053547  0.00299417  0.10061271
   0.00393521  0.67889965  0.10061034
   0.00003881  0.50001818  0.33383432
   0.16672520  0.33345055  0.33387605
   0.00002462  0.00001325  0.33375645
   0.16674480  0.83330409  0.33388022
   0.50002373  0.50002649  0.33383729
   0.66668354  0.33334716  0.33372253
   0.50001478 -0.00000033  0.33383307
   0.66657906  0.83328277  0.33387576
Direct configuration=    27
   0.00419105  0.00281274  0.11461166
   0.35812837  0.00296192  0.09880876
   0.00398042  0.35651386  0.09880960
   0.65037475  0.64879052  0.09880527
   0.32796214  0.32637941  0.10060401
   0.68050809  0.00296063  0.10060546
   0.00397277  0.67890025  0.10060224
   0.00002721  0.50000823  0.33383942
   0.16672749  0.33345249  0.33388736
   0.00001680  0.00001258  0.33375534
   0.16676252  0.83331396  0.33389177
   0.50002508  0.50003169  0.33384265
   0.66669339  0.33334900  0.33372376
   0.50000129  0.00000290  0.33383823
   0.66658930  0.83327716  0.33388714
Direct configuration=    28
   0.00418507  0.00280435  0.11459118
   0.35812465  0.00295126  0.09880779
   0.00398187  0.35652358  0.09880864
   0.65037296  0.64879065  0.09880395
   0.32796388  0.32638901  0.10060276
   0.68050541  0.00294494  0.10060249
   0.00397835  0.67891180  0.10059893
   0.00003570  0.50000784  0.33384357
   0.16671692  0.33344246  0.33389333
   0.00001967  0.00001328  0.33375558
   0.16676036  0.83332351  0.33389785
   0.50002887  0.50003939  0.33384693
   0.66669190  0.33334904  0.33372415
   0.49999681 -0.00000210  0.33384241
   0.66659825  0.83327833  0.33389312
Direct configuration=    29
   0.00416873  0.00278143  0.11453517
   0.35811447  0.00292212  0.09880512
   0.00398584  0.35655016  0.09880603
   0.65036806  0.64879099  0.09880033
   0.32796864  0.32641525  0.10059935
   0.68049810  0.00290203  0.10059437
   0.00399360  0.67894337  0.10058986
   0.00005891  0.50000676  0.33385493
   0.16668802  0.33341505  0.33390965
   0.00002752  0.00001520  0.33375625
   0.16675444  0.83334962  0.33391447
   0.50003924  0.50006044  0.33385864
   0.66668785  0.33334914  0.33372521
   0.49998454 -0.00001577  0.33385382
   0.66662271  0.83328154  0.33390946
Direct configuration=    30
   0.00417255  0.00278679  0.11454828
   0.35811685  0.00292894  0.09880574
   0.00398491  0.35654394  0.09880664
   0.65036921  0.64879091  0.09880118
   0.32796753  0.32640911  0.10060015
   0.68049981  0.00291208  0.10059627
   0.00399003  0.67893598  0.10059198
   0.00005348  0.50000701  0.33385227
   0.16669478  0.33342147  0.33390583
   0.00002568  0.00001475  0.33375609
   0.16675582  0.83334351  0.33391058
   0.50003681  0.50005552  0.33385590
   0.66668879  0.33334912  0.33372496
   0.49998741 -0.00001257  0.33385115
   0.66661699  0.83328079  0.33390564
Direct configuration=    31
   0.00416280  0.00277189  0.11452558
   0.35811555  0.00292319  0.09880376
   0.00397956  0.35655158  0.09880462
   0.65037302  0.64879182  0.09879901
   0.32797887  0.32641497  0.10059891
   0.68050125  0.00290899  0.10059350
   0.00398355  0.67894098  0.10058891
   0.00005341  0.50001448  0.33385781
   0.16670563  0.33342781  0.33391105
   0.00002676  0.00001544  0.33375859
   0.16675167  0.83333339  0.33391586
   0.50003102  0.50004814  0.33386153
   0.66668934  0.33334981  0.33372600
   0.49999663 -0.00001103  0.33385669
   0.66661159  0.83328588  0.33391085
Direct configuration=    32
   0.00413477  0.00272907  0.11446033
   0.35811181  0.00290667  0.09879806
   0.00396417  0.35657352  0.09879882
   0.65038397  0.64879444  0.09879278
   0.32801147  0.32643181  0.10059535
   0.68050538  0.00290010  0.10058555
   0.00396495  0.67895535  0.10058010
   0.00005321  0.50003595  0.33387371
   0.16673681  0.33344603  0.33392605
   0.00002988  0.00001744  0.33376578
   0.16673972  0.83330431  0.33393102
   0.50001439  0.50002693  0.33387772
   0.66669092  0.33335180  0.33372898
   0.50002312 -0.00000660  0.33387261
   0.66659608  0.83330052  0.33392582
Direct configuration=    33
   0.00414118  0.00273886  0.11447525
   0.35811267  0.00291045  0.09879936
   0.00396769  0.35656850  0.09880015
   0.65038146  0.64879384  0.09879420
   0.32800402  0.32642796  0.10059616
   0.68050444  0.00290213  0.10058736
   0.00396921  0.67895207  0.10058211
   0.00005326  0.50003104  0.33387008
   0.16672968  0.33344186  0.33392262
   0.00002917  0.00001698  0.33376414
   0.16674245  0.83331096  0.33392755
   0.50001819  0.50003178  0.33387402
   0.66669056  0.33335134  0.33372830
   0.50001706 -0.00000761  0.33386897
   0.66659963  0.83329717  0.33392240
Direct configuration=    34
   0.00413945  0.00273764  0.11444645
   0.35811941  0.00291461  0.09879640
   0.00396023  0.35656935  0.09879726
   0.65038040  0.64878806  0.09879101
   0.32801239  0.32642258  0.10059400
   0.68050439  0.00291572  0.10058359
   0.00395588  0.67893999  0.10057802
   0.00004554  0.50002426  0.33387752
   0.16673290  0.33344988  0.33392803
   0.00002775  0.00001738  0.33377014
   0.16675305  0.83331235  0.33393294
   0.50002385  0.50003286  0.33388153
   0.66669397  0.33335239  0.33373160
   0.50001521 -0.00000076  0.33387640
   0.66659625  0.83329101  0.33392777
Direct configuration=    35
   0.00413427  0.00273398  0.11436006
   0.35813963  0.00292709  0.09878751
   0.00393784  0.35657190  0.09878861
   0.65037720  0.64877071  0.09878144
   0.32803751  0.32640643  0.10058751
   0.68050424  0.00295650  0.10057228
   0.00391591  0.67890376  0.10056575
   0.00002238  0.50000393  0.33389986
   0.16674255  0.33347396  0.33394425
   0.00002351  0.00001858  0.33378815
   0.16678483  0.83331653  0.33394909
   0.50004083  0.50003612  0.33390409
   0.66670418  0.33335552  0.33374148
   0.50000965  0.00001980  0.33389869
   0.66658613  0.83327252  0.33394389
Direct configuration=    36
   0.00414103  0.00274688  0.11432582
   0.35814845  0.00293651  0.09878426
   0.00393355  0.35656593  0.09878552
   0.65036651  0.64875828  0.09877793
   0.32803631  0.32639504  0.10058352
   0.68050417  0.00297483  0.10056695
   0.00390597  0.67888564  0.10056014
   0.00003527  0.50000781  0.33390786
   0.16673160  0.33346115  0.33395058
   0.00002965  0.00002011  0.33379712
   0.16677627  0.83332455  0.33395530
   0.50004467  0.50004227  0.33391210
   0.66670077  0.33335561  0.33374875
   0.50001071  0.00001454  0.33390665
   0.66659575  0.83327818  0.33395017
Direct configuration=    37
   0.00416130  0.00278559  0.11422309
   0.35817489  0.00296476  0.09877450
   0.00392068  0.35654802  0.09877626
   0.65033442  0.64872098  0.09876741
   0.32803270  0.32636088  0.10057153
   0.68050398  0.00302982  0.10055098
   0.00387617  0.67883129  0.10054328
   0.00007393  0.50001946  0.33393187
   0.16669872  0.33342274  0.33396957
   0.00004808  0.00002470  0.33382403
   0.16675060  0.83334861  0.33397393
   0.50005620  0.50006071  0.33393614
   0.66669053  0.33335589  0.33377057
   0.50001387 -0.00000126  0.33393052
   0.66662461  0.83329516  0.33396900
Direct configuration=    38
   0.00415472  0.00277302  0.11425644
   0.35816631  0.00295559  0.09877767
   0.00392486  0.35655383  0.09877927
   0.65034484  0.64873309  0.09877082
   0.32803387  0.32637197  0.10057542
   0.68050404  0.00301196  0.10055617
   0.00388585  0.67884893  0.10054875
   0.00006138  0.50001568  0.33392407
   0.16670939  0.33343521  0.33396341
   0.00004209  0.00002321  0.33381529
   0.16675894  0.83334080  0.33396788
   0.50005245  0.50005472  0.33392833
   0.66669385  0.33335580  0.33376348
   0.50001284  0.00000387  0.33392277
   0.66661524  0.83328965  0.33396288
Direct configuration=    39
   0.00415765  0.00277856  0.11421589
   0.35816862  0.00295972  0.09877454
   0.00392577  0.35654981  0.09877619
   0.65032968  0.64872211  0.09876769
   0.32802819  0.32636940  0.10056758
   0.68050461  0.00301555  0.10054797
   0.00388635  0.67884399  0.10054045
   0.00006487  0.50002729  0.33393181
   0.16672272  0.33343503  0.33397190
   0.00003864  0.00002362  0.33382739
   0.16675701  0.83333587  0.33397615
   0.50003817  0.50005108  0.33393599
   0.66670099  0.33335785  0.33377735
   0.50001348 -0.00000277  0.33393046
   0.66662393  0.83330022  0.33397130
Direct configuration=    40
   0.00416263  0.00278796  0.11414699
   0.35817254  0.00296675  0.09876924
   0.00392733  0.35654298  0.09877096
   0.65030391  0.64870346  0.09876237
   0.32801852  0.32636504  0.10055425
   0.68050557  0.00302165  0.10053405
   0.00388719  0.67883558  0.10052634
   0.00007082  0.50004702  0.33394496
   0.16674536  0.33343473  0.33398633
   0.00003276  0.00002433  0.33384796
   0.16675373  0.83332750  0.33399020
   0.50001389  0.50004487  0.33394901
   0.66671312  0.33336134  0.33380090
   0.50001458 -0.00001407  0.33394351
   0.66663871  0.83331818  0.33398562
Direct configuration=    41
   0.00415968  0.00278306  0.11411924
   0.35817288  0.00296553  0.09876720
   0.00392889  0.35654577  0.09876886
   0.65029664  0.64869990  0.09876049
   0.32801657  0.32636913  0.10054784
   0.68050310  0.00301593  0.10052783
   0.00389015  0.67883744  0.10052014
   0.00006919  0.50004520  0.33395003
   0.16674765  0.33344009  0.33399252
   0.00003394  0.00002517  0.33385648
   0.16675817  0.83332717  0.33399623
   0.50001783  0.50004538  0.33395400
   0.66671434  0.33336220  0.33381150
   0.50001630 -0.00001021  0.33394855
   0.66663532  0.83331559  0.33399176
Direct configuration=    42
   0.00415084  0.00276836  0.11403599
   0.35817390  0.00296184  0.09876111
   0.00393357  0.35655415  0.09876258
   0.65027480  0.64868920  0.09875486
   0.32801073  0.32638140  0.10052862
   0.68049571  0.00299878  0.10050915
   0.00389901  0.67884302  0.10050156
   0.00006431  0.50003972  0.33396524
   0.16675452  0.33345616  0.33401108
   0.00003746  0.00002771  0.33388205
   0.16677149  0.83332618  0.33401433
   0.50002967  0.50004688  0.33396897
   0.66671802  0.33336478  0.33384329
   0.50002148  0.00000134  0.33396365
   0.66662516  0.83330781  0.33401019
Direct configuration=    43
   0.00413315  0.00273896  0.11386950
   0.35817593  0.00295447  0.09874891
   0.00394292  0.35657091  0.09875000
   0.65023113  0.64866781  0.09874359
   0.32799903  0.32640594  0.10049018
   0.68048092  0.00296448  0.10047180
   0.00391674  0.67885419  0.10046440
   0.00005455  0.50002876  0.33399567
   0.16676826  0.33348831  0.33404822
   0.00004451  0.00003278  0.33393320
   0.16679814  0.83332420  0.33405054
   0.50005333  0.50004988  0.33399891
   0.66672537  0.33336994  0.33390686
   0.50003184  0.00002445  0.33399385
   0.66660483  0.83329227  0.33404705
Direct configuration=    44
   0.00411856  0.00271657  0.11380565
   0.35818887  0.00294603  0.09874260
   0.00394358  0.35659581  0.09874340
   0.65022733  0.64866759  0.09873799
   0.32800133  0.32641911  0.10047342
   0.68045604  0.00294475  0.10045633
   0.00391964  0.67885024  0.10044929
   0.00006811  0.50002755  0.33401087
   0.16674634  0.33346708  0.33406301
   0.00005692  0.00003616  0.33395240
   0.16678735  0.83334217  0.33406517
   0.50006982  0.50005899  0.33401399
   0.66671886  0.33337032  0.33392776
   0.50003713  0.00002658  0.33400899
   0.66662079  0.83329837  0.33406179
Direct configuration=    45
   0.00411602  0.00271268  0.11379453
   0.35819112  0.00294457  0.09874150
   0.00394369  0.35660014  0.09874225
   0.65022666  0.64866755  0.09873701
   0.32800173  0.32642140  0.10047051
   0.68045171  0.00294132  0.10045364
   0.00392014  0.67884955  0.10044666
   0.00007047  0.50002734  0.33401352
   0.16674252  0.33346338  0.33406559
   0.00005908  0.00003675  0.33395574
   0.16678547  0.83334530  0.33406771
   0.50007269  0.50006058  0.33401661
   0.66671773  0.33337038  0.33393140
   0.50003805  0.00002695  0.33401163
   0.66662357  0.83329943  0.33406436
Direct configuration=    46
   0.00411094  0.00270489  0.11377230
   0.35819563  0.00294163  0.09873931
   0.00394392  0.35660881  0.09873995
   0.65022534  0.64866747  0.09873506
   0.32800253  0.32642598  0.10046467
   0.68044305  0.00293445  0.10044826
   0.00392115  0.67884818  0.10044141
   0.00007520  0.50002692  0.33401881
   0.16673489  0.33345599  0.33407074
   0.00006340  0.00003793  0.33396243
   0.16678171  0.83335155  0.33407281
   0.50007843  0.50006375  0.33402186
   0.66671546  0.33337051  0.33393867
   0.50003989  0.00002770  0.33401690
   0.66662913  0.83330156  0.33406949
Direct configuration=    47
   0.00410602  0.00270052  0.11374100
   0.35820639  0.00293588  0.09873380
   0.00393969  0.35662358  0.09873428
   0.65022733  0.64866592  0.09873000
   0.32800452  0.32642700  0.10045467
   0.68042680  0.00292866  0.10043978
   0.00391776  0.67884036  0.10043336
   0.00007910  0.50003775  0.33403063
   0.16674569  0.33345055  0.33407898
   0.00005800  0.00003804  0.33397072
   0.16678142  0.83335187  0.33408122
   0.50006230  0.50006296  0.33403374
   0.66672454  0.33337276  0.33394399
   0.50003527  0.00001810  0.33402873
   0.66664583  0.83331339  0.33407778
Direct configuration=    48
   0.00410474  0.00269939  0.11373288
   0.35820919  0.00293439  0.09873237
   0.00393859  0.35662741  0.09873281
   0.65022784  0.64866551  0.09872868
   0.32800504  0.32642726  0.10045208
   0.68042258  0.00292716  0.10043758
   0.00391688  0.67883834  0.10043127
   0.00008011  0.50004056  0.33403370
   0.16674849  0.33344914  0.33408112
   0.00005660  0.00003807  0.33397287
   0.16678134  0.83335195  0.33408340
   0.50005812  0.50006276  0.33403682
   0.66672690  0.33337334  0.33394537
   0.50003407  0.00001561  0.33403180
   0.66665017  0.83331646  0.33407993
Direct configuration=    49
   0.00410219  0.00269713  0.11371664
   0.35821477  0.00293141  0.09872951
   0.00393640  0.35663506  0.09872987
   0.65022888  0.64866471  0.09872606
   0.32800607  0.32642779  0.10044688
   0.68041415  0.00292416  0.10043319
   0.00391512  0.67883428  0.10042709
   0.00008214  0.50004617  0.33403983
   0.16675409  0.33344631  0.33408539
   0.00005380  0.00003812  0.33397718
   0.16678119  0.83335211  0.33408777
   0.50004975  0.50006235  0.33404297
   0.66673161  0.33337450  0.33394813
   0.50003167  0.00001063  0.33403793
   0.66665883  0.83332260  0.33408422
Direct configuration=    50
   0.00410406  0.00270592  0.11368714
   0.35821789  0.00292639  0.09872214
   0.00392846  0.35663855  0.09872240
   0.65022668  0.64865642  0.09871900
   0.32800612  0.32642211  0.10043615
   0.68041013  0.00292575  0.10042463
   0.00390918  0.67882921  0.10041906
   0.00008432  0.50004840  0.33405362
   0.16676062  0.33345647  0.33409481
   0.00005596  0.00003944  0.33398357
   0.16678618  0.83334771  0.33409752
   0.50005090  0.50006299  0.33405689