       N       E                     dE             d eps       ncg     rms          rms(c)
DAV:   1     0.203776867468E+03    0.20378E+03   -0.25746E+04 14208   0.860E+02
DAV:   2    -0.116365315290E+03   -0.32014E+03   -0.31871E+03 20160   0.163E+02
DAV:   3    -0.129490114761E+03   -0.13125E+02   -0.13115E+02 27024   0.432E+01
DAV:   4    -0.129509651875E+03   -0.19537E-01   -0.19537E-01 19920   0.168E+00
DAV:   5    -0.129509715434E+03   -0.63559E-04   -0.63559E-04 25824   0.916E-02    0.245E+01
DAV:   6    -0.920468927961E+02    0.37463E+02   -0.72223E+01 26016   0.255E+01    0.139E+01
DAV:   7    -0.100507779213E+03   -0.84609E+01   -0.10052E+01 22128   0.102E+01    0.811E+00
DAV:   8    -0.110404538321E+03   -0.98968E+01   -0.87039E+00 23712   0.893E+00    0.435E+00
DAV:   9    -0.117168543572E+03   -0.67640E+01   -0.39220E+00 19296   0.612E+00    0.278E+00
DAV:  10    -0.123473486623E+03   -0.63049E+01   -0.80569E+00 24048   0.705E+00    0.159E+00
DAV:  11    -0.125278525350E+03   -0.18050E+01   -0.28351E+00 25008   0.384E+00    0.990E-01
DAV:  12    -0.125439011877E+03   -0.16049E+00   -0.22881E-01 19440   0.139E+00    0.464E-01
DAV:  13    -0.125465999327E+03   -0.26987E-01   -0.22943E-02 17664   0.554E-01    0.187E-01
DAV:  14    -0.125488288463E+03   -0.22289E-01   -0.60349E-03 20928   0.284E-01    0.838E-02
DAV:  15    -0.125495772373E+03   -0.74839E-02   -0.31345E-03 19104   0.157E-01    0.439E-02
DAV:  16    -0.125497745016E+03   -0.19726E-02   -0.63016E-04 17088   0.812E-02    0.224E-02
DAV:  17    -0.125499000591E+03   -0.12556E-02   -0.17176E-04 14688   0.520E-02    0.171E-02
DAV:  18    -0.125499724723E+03   -0.72413E-03   -0.84619E-05 16272   0.381E-02    0.124E-02
DAV:  19    -0.125500154936E+03   -0.43021E-03   -0.41009E-05 19296   0.245E-02    0.724E-03
DAV:  20    -0.125500206034E+03   -0.51098E-04   -0.21043E-05 22608   0.176E-02    0.435E-03
DAV:  21    -0.125500227888E+03   -0.21854E-04   -0.57581E-06 20160   0.949E-03    0.217E-03
DAV:  22    -0.125500249604E+03   -0.21716E-04   -0.22010E-06 22176   0.551E-03    0.136E-03
DAV:  23    -0.125500264542E+03   -0.14938E-04   -0.16671E-06 21360   0.395E-03    0.712E-04
DAV:  24    -0.125500267488E+03   -0.29466E-05   -0.31468E-07 23280   0.210E-03    0.373E-04
DAV:  25    -0.125500268430E+03   -0.94143E-06   -0.11479E-07 22464   0.113E-03
   1 F= -.12709221E+03 E0= -.12709143E+03  d E =-.127092E+03  mag=    -0.0000
       N       E                     dE             d eps       ncg     rms          rms(c)
DAV:   1    -0.125508611152E+03   -0.83437E-02   -0.29035E+00 14208   0.529E+00    0.465E-01
DAV:   2    -0.125500852386E+03    0.77588E-02   -0.58404E-02 26064   0.690E-01    0.205E-01
DAV:   3    -0.125499977574E+03    0.87481E-03   -0.49051E-03 21408   0.197E-01    0.802E-02
DAV:   4    -0.125499939377E+03    0.38197E-04   -0.55644E-04 26688   0.676E-02    0.215E-02
DAV:   5    -0.125499942237E+03   -0.28598E-05   -0.16336E-05 25056   0.129E-02    0.703E-03
DAV:   6    -0.125499942228E+03    0.86666E-08   -0.34250E-06 22368   0.547E-03
   2 F= -.12709136E+03 E0= -.12709059E+03  d E =0.847870E-03  mag=    -0.0000
       N       E                     dE             d eps       ncg     rms          rms(c)
DAV:   1    -0.125509234976E+03   -0.92927E-02   -0.77346E-01 14208   0.272E+00    0.240E-01
DAV:   2    -0.125507119091E+03    0.21159E-02   -0.15474E-02 25824   0.355E-01    0.106E-01
DAV:   3    -0.125506893415E+03    0.22568E-03   -0.12910E-03 23232   0.102E-01    0.419E-02
DAV:   4    -0.125506883697E+03    0.97186E-05   -0.14497E-04 23712   0.344E-02    0.109E-02
DAV:   5    -0.125506884377E+03   -0.68035E-06   -0.47799E-06 22512   0.694E-03
   3 F= -.12709857E+03 E0= -.12709779E+03  d E =-.636126E-02  mag=    -0.0000
       N       E                     dE             d eps       ncg     rms          rms(c)
DAV:   1    -0.125512247792E+03   -0.53641E-02   -0.26762E-01 14208   0.185E+00    0.109E-01
DAV:   2    -0.125512287480E+03   -0.39688E-04   -0.17980E-03 27648   0.174E-01    0.635E-02
DAV:   3    -0.125512283701E+03    0.37791E-05   -0.17842E-04 22560   0.482E-02    0.169E-02
DAV:   4    -0.125512284541E+03   -0.84046E-06   -0.28657E-05 26112   0.195E-02    0.640E-03
DAV:   5    -0.125512284981E+03   -0.44010E-06   -0.11168E-06 22080   0.443E-03
   4 F= -.12710387E+03 E0= -.12710309E+03  d E =-.530158E-02  mag=    -0.0000
       N       E                     dE             d eps       ncg     rms          rms(c)
DAV:   1    -0.125518112587E+03   -0.58280E-02   -0.17223E+00 14208   0.468E+00    0.276E-01
DAV:   2    -0.125518438780E+03   -0.32619E-03   -0.11651E-02 26832   0.441E-01    0.160E-01
DAV:   3    -0.125518407866E+03    0.30914E-04   -0.11602E-03 21552   0.123E-01    0.423E-02
DAV:   4    -0.125518413330E+03   -0.54640E-05   -0.18482E-04 26784   0.495E-02    0.162E-02
DAV:   5    -0.125518416107E+03   -0.27776E-05   -0.68546E-06 22416   0.110E-02    0.697E-03
DAV:   6    -0.125518416277E+03   -0.16945E-06   -0.34158E-06 23952   0.662E-03
   5 F= -.12710973E+03 E0= -.12710895E+03  d E =-.111563E-01  mag=     0.0000
       N       E                     dE             d eps       ncg     rms          rms(c)
DAV:   1    -0.125519996849E+03   -0.15807E-02   -0.22607E-02 14304   0.559E-01    0.327E-02
DAV:   2    -0.125519999955E+03   -0.31064E-05   -0.18430E-04 26688   0.579E-02    0.186E-02
DAV:   3    -0.125519998752E+03    0.12035E-05   -0.19075E-05 21408   0.165E-02    0.541E-03
DAV:   4    -0.125519999177E+03   -0.42548E-06   -0.32053E-06 25920   0.665E-03
   6 F= -.12711129E+03 E0= -.12711051E+03  d E =-.155920E-02  mag=     0.0000
       N       E                     dE             d eps       ncg     rms          rms(c)
DAV:   1    -0.125523747639E+03   -0.37489E-02   -0.20366E-01 14208   0.168E+00    0.983E-02
DAV:   2    -0.125523772054E+03   -0.24415E-04   -0.16059E-03 25968   0.171E-01    0.555E-02
DAV:   3    -0.125523760385E+03    0.11669E-04   -0.16585E-04 20064   0.486E-02    0.160E-02
DAV:   4    -0.125523761040E+03   -0.65565E-06   -0.27466E-05 26400   0.192E-02    0.662E-03
DAV:   5    -0.125523761708E+03   -0.66722E-06   -0.94238E-07 20928   0.408E-03
   7 F= -.12711497E+03 E0= -.12711419E+03  d E =-.524443E-02  mag=    -0.0000
       N       E                     dE             d eps       ncg     rms          rms(c)
DAV:   1    -0.125526885140E+03   -0.31241E-02   -0.81772E-01 14208   0.335E+00    0.196E-01
DAV:   2    -0.125526981560E+03   -0.96420E-04   -0.65024E-03 26688   0.344E-01    0.111E-01
DAV:   3    -0.125526931927E+03    0.49633E-04   -0.66173E-04 20544   0.971E-02    0.319E-02
DAV:   4    -0.125526934445E+03   -0.25182E-05   -0.10842E-04 26688   0.381E-02    0.131E-02
DAV:   5    -0.125526936360E+03   -0.19144E-05   -0.34390E-06 21744   0.787E-03    0.542E-03
DAV:   6    -0.125526936087E+03    0.27290E-06   -0.18547E-06 25152   0.518E-03
   8 F= -.12711796E+03 E0= -.12711719E+03  d E =-.823541E-02  mag=     0.0000
       N       E                     dE             d eps       ncg     rms          rms(c)
DAV:   1    -0.125528406531E+03   -0.14702E-02   -0.45264E-02 14304   0.725E-01    0.409E-02
DAV:   2    -0.125528414546E+03   -0.80145E-05   -0.26081E-04 23616   0.608E-02    0.244E-02
DAV:   3    -0.125528412425E+03    0.21203E-05   -0.31942E-05 21408   0.184E-02    0.419E-03
DAV:   4    -0.125528412552E+03   -0.12711E-06   -0.23263E-06 25152   0.603E-03
   9 F= -.12711936E+03 E0= -.12711858E+03  d E =-.139451E-02  mag=     0.0000
       N       E                     dE             d eps       ncg     rms          rms(c)
DAV:   1    -0.125531726172E+03   -0.33137E-02   -0.40779E-01 14208   0.217E+00    0.122E-01
DAV:   2    -0.125531806316E+03   -0.80143E-04   -0.22853E-03 25680   0.181E-01    0.729E-02
DAV:   3    -0.125531786039E+03    0.20277E-04   -0.27936E-04 20928   0.540E-02    0.120E-02
DAV:   4    -0.125531786579E+03   -0.54023E-06   -0.18961E-05 23616   0.173E-02    0.611E-03
DAV:   5    -0.125531785532E+03    0.10474E-05   -0.23426E-06 23664   0.598E-03    0.232E-03
DAV:   6    -0.125531785171E+03    0.36017E-06   -0.76846E-07 23904   0.320E-03
  10 F= -.12712249E+03 E0= -.12712170E+03  d E =-.452252E-02  mag=     0.0000
       N       E                     dE             d eps       ncg     rms          rms(c)
DAV:   1    -0.125533942766E+03   -0.21572E-02   -0.16322E+00 14208   0.434E+00    0.241E-01
DAV:   2    -0.125534275580E+03   -0.33281E-03   -0.87637E-03 27600   0.356E-01    0.144E-01
DAV:   3    -0.125534192221E+03    0.83359E-04   -0.11229E-03 21120   0.108E-01    0.222E-02
DAV:   4    -0.125534193276E+03   -0.10549E-05   -0.70503E-05 24288   0.336E-02    0.120E-02
DAV:   5    -0.125534189659E+03    0.36169E-05   -0.88702E-06 23376   0.116E-02    0.388E-03
DAV:   6    -0.125534188742E+03    0.91722E-06   -0.30333E-06 24096   0.626E-03
  11 F= -.12712441E+03 E0= -.12712366E+03  d E =-.644354E-02  mag=     0.0000
       N       E                     dE             d eps       ncg     rms          rms(c)
DAV:   1    -0.125535477387E+03   -0.12877E-02   -0.59245E-02 14208   0.862E-01    0.461E-02
DAV:   2    -0.125535490335E+03   -0.12948E-04   -0.36980E-04 26160   0.762E-02    0.278E-02
DAV:   3    -0.125535487078E+03    0.32568E-05   -0.46038E-05 18480   0.234E-02    0.537E-03
DAV:   4    -0.125535487907E+03   -0.82946E-06   -0.42867E-06 24096   0.841E-03
  12 F= -.12712562E+03 E0= -.12712486E+03  d E =-.121147E-02  mag=     0.0000
       N       E                     dE             d eps       ncg     rms          rms(c)
DAV:   1    -0.125537828453E+03   -0.23414E-02   -0.53350E-01 14208   0.259E+00    0.139E-01
DAV:   2    -0.125537940873E+03   -0.11242E-03   -0.31359E-03 26448   0.224E-01    0.835E-02
DAV:   3    -0.125537908861E+03    0.32012E-04   -0.40912E-04 21648   0.695E-02    0.151E-02
DAV:   4    -0.125537908668E+03    0.19288E-06   -0.36517E-05 24096   0.242E-02    0.782E-03
DAV:   5    -0.125537908528E+03    0.14055E-06   -0.22589E-06 23664   0.648E-03
  13 F= -.12712778E+03 E0= -.12712699E+03  d E =-.336800E-02  mag=    -0.0000
       N       E                     dE             d eps       ncg     rms          rms(c)
DAV:   1    -0.125536154548E+03    0.17541E-02   -0.21343E+00 14208   0.517E+00    0.275E-01
DAV:   2    -0.125536602738E+03   -0.44819E-03   -0.12295E-02 25584   0.444E-01    0.166E-01
DAV:   3    -0.125536469787E+03    0.13295E-03   -0.16567E-03 22608   0.139E-01    0.292E-02
DAV:   4    -0.125536467649E+03    0.21379E-05   -0.14454E-04 23328   0.483E-02    0.154E-02
DAV:   5    -0.125536466339E+03    0.13106E-05   -0.86344E-06 24384   0.128E-02    0.671E-03
DAV:   6    -0.125536466032E+03    0.30620E-06   -0.40794E-06 23328   0.820E-03
  14 F= -.12712580E+03 E0= -.12712507E+03  d E =-.139417E-02  mag=    -0.0000
       N       E                     dE             d eps       ncg     rms          rms(c)
DAV:   1    -0.125538133363E+03   -0.16670E-02   -0.11474E+00 14208   0.379E+00    0.202E-01
DAV:   2    -0.125538383567E+03   -0.25020E-03   -0.66083E-03 25440   0.325E-01    0.122E-01
DAV:   3    -0.125538329793E+03    0.53774E-04   -0.88392E-04 23616   0.102E-01    0.214E-02
DAV:   4    -0.125538332448E+03   -0.26544E-05   -0.76608E-05 24288   0.348E-02    0.113E-02
DAV:   5    -0.125538334796E+03   -0.23486E-05   -0.39230E-06 22416   0.853E-03    0.473E-03
DAV:   6    -0.125538335244E+03   -0.44825E-06   -0.16391E-06 21264   0.519E-03
  15 F= -.12712806E+03 E0= -.12712728E+03  d E =-.365333E-02  mag=    -0.0000
       N       E                     dE             d eps       ncg     rms          rms(c)
DAV:   1    -0.125538585320E+03   -0.25052E-03   -0.37095E-03 21360   0.256E-01    0.149E-02
DAV:   2    -0.125538582814E+03    0.25068E-05   -0.39188E-05 24528   0.262E-02    0.769E-03
DAV:   3    -0.125538582119E+03    0.69495E-06   -0.39023E-06 21456   0.772E-03
  16 F= -.12712829E+03 E0= -.12712751E+03  d E =-.232953E-03  mag=     0.0000
       N       E                     dE             d eps       ncg     rms          rms(c)
DAV:   1    -0.125538918971E+03   -0.33616E-03   -0.29318E-02 14976   0.721E-01    0.418E-02
DAV:   2    -0.125538910055E+03    0.89158E-05   -0.34581E-04 20496   0.795E-02    0.225E-02
DAV:   3    -0.125538904822E+03    0.52324E-05   -0.42001E-05 19248   0.245E-02    0.787E-03
DAV:   4    -0.125538905012E+03   -0.18968E-06   -0.61717E-06 23184   0.902E-03
  17 F= -.12712858E+03 E0= -.12712779E+03  d E =-.514367E-03  mag=    -0.0000
       N       E                     dE             d eps       ncg     rms          rms(c)
DAV:   1    -0.125539131897E+03   -0.22707E-03   -0.49835E-03 14208   0.286E-01    0.161E-02
DAV:   2    -0.125539130247E+03    0.16498E-05   -0.48151E-05 20640   0.279E-02    0.859E-03
DAV:   3    -0.125539129746E+03    0.50047E-06   -0.40284E-06 19152   0.779E-03
  18 F= -.12712879E+03 E0= -.12712800E+03  d E =-.210439E-03  mag=    -0.0000
       N       E                     dE             d eps       ncg     rms          rms(c)
DAV:   1    -0.125539339567E+03   -0.20932E-03   -0.20426E-02 14640   0.578E-01    0.329E-02
DAV:   2    -0.125539332005E+03    0.75621E-05   -0.19009E-04 19536   0.549E-02    0.173E-02
DAV:   3    -0.125539329847E+03    0.21575E-05   -0.15945E-05 22608   0.152E-02    0.652E-03
DAV:   4    -0.125539330078E+03   -0.23092E-06   -0.23495E-06 20928   0.628E-03
  19 F= -.12712896E+03 E0= -.12712817E+03  d E =-.381623E-03  mag=     0.0000
       N       E                     dE             d eps       ncg     rms          rms(c)
DAV:   1    -0.125539405186E+03   -0.75339E-04   -0.27426E-03 16224   0.219E-01    0.122E-02
DAV:   2    -0.125539404368E+03    0.81822E-06   -0.34233E-05 16800   0.251E-02    0.693E-03
DAV:   3    -0.125539403678E+03    0.69017E-06   -0.46623E-06 18480   0.897E-03
  20 F= -.12712902E+03 E0= -.12712824E+03  d E =-.599945E-04  mag=     0.0000
       N       E                     dE             d eps       ncg     rms          rms(c)
DAV:   1    -0.125539418679E+03   -0.14311E-04   -0.67456E-04 18816   0.109E-01    0.665E-03
DAV:   2    -0.125539418492E+03    0.18700E-06   -0.78727E-06 17856   0.124E-02
  21 F= -.12712903E+03 E0= -.12712824E+03  d E =-.680024E-04  mag=    -0.0000
       N       E                     dE             d eps       ncg     rms          rms(c)
DAV:   1    -0.125539489511E+03   -0.70832E-04   -0.17721E-03 14400   0.167E-01    0.868E-03
DAV:   2    -0.125539489262E+03    0.24925E-06   -0.16621E-05 16656   0.165E-02    0.488E-03
DAV:   3    -0.125539489166E+03    0.95949E-07   -0.17459E-06 16560   0.550E-03
  22 F= -.12712907E+03 E0= -.12712829E+03  d E =-.473622E-04  mag=    -0.0000
       N       E                     dE             d eps       ncg     rms          rms(c)
DAV:   1    -0.125539557182E+03   -0.67920E-04   -0.45194E-03 14304   0.266E-01    0.137E-02
DAV:   2    -0.125539556282E+03    0.90032E-06   -0.41430E-05 19680   0.256E-02    0.762E-03
DAV:   3    -0.125539555958E+03    0.32424E-06   -0.38553E-06 17760   0.778E-03
  23 F= -.12712910E+03 E0= -.12712832E+03  d E =-.770518E-04  mag=     0.0000
       N       E                     dE             d eps       ncg     rms          rms(c)
DAV:   1    -0.125539641741E+03   -0.85459E-04   -0.29427E-03 14208   0.218E-01    0.121E-02
DAV:   2    -0.125539641596E+03    0.14489E-06   -0.32697E-05 15888   0.247E-02    0.693E-03
DAV:   3    -0.125539641171E+03    0.42483E-06   -0.40506E-06 15552   0.898E-03
  24 F= -.12712914E+03 E0= -.12712836E+03  d E =-.387126E-04  mag=    -0.0000
       N       E                     dE             d eps       ncg     rms          rms(c)
DAV:   1    -0.125539676934E+03   -0.35338E-04   -0.11130E-03 15792   0.134E-01    0.768E-03
DAV:   2    -0.125539676906E+03    0.28222E-07   -0.11780E-05 19680   0.151E-02    0.441E-03
DAV:   3    -0.125539676851E+03    0.55028E-07   -0.17549E-06 14304   0.639E-03
  25 F= -.12712915E+03 E0= -.12712837E+03  d E =-.457883E-04  mag=     0.0000
       N       E                     dE             d eps       ncg     rms          rms(c)
DAV:   1    -0.125539778377E+03   -0.10147E-03   -0.33475E-03 14208   0.225E-01    0.116E-02
DAV:   2    -0.125539778271E+03    0.10537E-06   -0.33041E-05 22656   0.239E-02    0.682E-03
DAV:   3    -0.125539778003E+03    0.26777E-06   -0.35699E-06 15504   0.775E-03
  26 F= -.12712919E+03 E0= -.12712841E+03  d E =-.391128E-04  mag=    -0.0000
       N       E                     dE             d eps       ncg     rms          rms(c)
DAV:   1    -0.125539876564E+03   -0.98293E-04   -0.54085E-03 14208   0.286E-01    0.150E-02
DAV:   2    -0.125539876369E+03    0.19522E-06   -0.52341E-05 22416   0.301E-02    0.878E-03
DAV:   3    -0.125539875935E+03    0.43372E-06   -0.58206E-06 16032   0.976E-03
  27 F= -.12712921E+03 E0= -.12712842E+03  d E =-.581460E-04  mag=     0.0000
       N       E                     dE             d eps       ncg     rms          rms(c)
DAV:   1    -0.125539950018E+03   -0.73650E-04   -0.14471E-03 14208   0.147E-01    0.739E-03
DAV:   2    -0.125539950328E+03   -0.30917E-06   -0.11623E-05 20304   0.147E-02    0.465E-03
DAV:   3    -0.125539950702E+03   -0.37463E-06   -0.18378E-06 14976   0.650E-03
  28 F= -.12712924E+03 E0= -.12712846E+03  d E =-.304186E-04  mag=    -0.0000
       N       E                     dE             d eps       ncg     rms          rms(c)
DAV:   1    -0.125540146746E+03   -0.19642E-03   -0.13036E-02 14208   0.439E-01    0.207E-02
DAV:   2    -0.125540150379E+03   -0.36333E-05   -0.97559E-05 23520   0.411E-02    0.129E-02
DAV:   3    -0.125540150063E+03    0.31631E-06   -0.84095E-06 16128   0.113E-02
  29 F= -.12712930E+03 E0= -.12712852E+03  d E =-.967991E-04  mag=     0.0000
       N       E                     dE             d eps       ncg     rms          rms(c)
DAV:   1    -0.125540429455E+03   -0.27908E-03   -0.52196E-02 14208   0.878E-01    0.416E-02
DAV:   2    -0.125540443912E+03   -0.14457E-04   -0.37640E-04 26208   0.809E-02    0.259E-02
DAV:   3    -0.125540441278E+03    0.26339E-05   -0.31726E-05 17424   0.207E-02    0.499E-03
DAV:   4    -0.125540441372E+03   -0.94135E-07   -0.53979E-06 15744   0.112E-02
  30 F= -.12712933E+03 E0= -.12712855E+03  d E =-.122498E-03  mag=    -0.0000
       N       E                     dE             d eps       ncg     rms          rms(c)
DAV:   1    -0.125540362077E+03    0.79201E-04   -0.53963E-03 14208   0.282E-01    0.131E-02
DAV:   2    -0.125540363000E+03   -0.92244E-06   -0.41697E-05 15888   0.275E-02    0.807E-03
DAV:   3    -0.125540363855E+03   -0.85555E-06   -0.54069E-06 14784   0.108E-02
  31 F= -.12712934E+03 E0= -.12712855E+03  d E =-.130514E-03  mag=    -0.0000
       N       E                     dE             d eps       ncg     rms          rms(c)
DAV:   1    -0.125540444966E+03   -0.81966E-04   -0.18780E-03 14688   0.169E-01    0.800E-03
DAV:   2    -0.125540445044E+03   -0.77978E-07   -0.18040E-05 16416   0.188E-02    0.491E-03
DAV:   3    -0.125540445772E+03   -0.72827E-06   -0.31907E-06 18432   0.903E-03
  32 F= -.12712937E+03 E0= -.12712858E+03  d E =-.307011E-04  mag=     0.0000
       N       E                     dE             d eps       ncg     rms          rms(c)
DAV:   1    -0.125540639215E+03   -0.19417E-03   -0.16887E-02 14208   0.507E-01    0.248E-02
DAV:   2    -0.125540644201E+03   -0.49859E-05   -0.14345E-04 22128   0.508E-02    0.154E-02
DAV:   3    -0.125540643759E+03    0.44167E-06   -0.12474E-05 15120   0.150E-02    0.324E-03
DAV:   4    -0.125540643816E+03   -0.57323E-07   -0.38869E-06 14496   0.100E-02
  33 F= -.12712941E+03 E0= -.12712863E+03  d E =-.752136E-04  mag=    -0.0000
       N       E                     dE             d eps       ncg     rms          rms(c)
DAV:   1    -0.125540664456E+03   -0.20697E-04   -0.30906E-04 16464   0.690E-02    0.359E-03
DAV:   2    -0.125540664437E+03    0.18513E-07   -0.32097E-06 22032   0.831E-03
  34 F= -.12712941E+03 E0= -.12712863E+03  d E =-.751978E-04  mag=    -0.0000
       N       E                     dE             d eps       ncg     rms          rms(c)
DAV:   1    -0.125540725640E+03   -0.61184E-04   -0.89388E-04 16368   0.117E-01    0.588E-03
DAV:   2    -0.125540725776E+03   -0.13583E-06   -0.86154E-06 14688   0.131E-02
  35 F= -.12712943E+03 E0= -.12712865E+03  d E =-.225598E-04  mag=    -0.0000
       N       E                     dE             d eps       ncg     rms          rms(c)
DAV:   1    -0.125540896866E+03   -0.17123E-03   -0.80423E-03 14208   0.350E-01    0.169E-02
DAV:   2    -0.125540900682E+03   -0.38160E-05   -0.75234E-05 14976   0.368E-02    0.107E-02
DAV:   3    -0.125540902505E+03   -0.18226E-05   -0.76866E-06 17712   0.134E-02    0.282E-03
DAV:   4    -0.125540902103E+03    0.40125E-06   -0.54450E-06 14256   0.119E-02
  36 F= -.12712949E+03 E0= -.12712871E+03  d E =-.825712E-04  mag=    -0.0000
       N       E                     dE             d eps       ncg     rms          rms(c)
DAV:   1    -0.125541193480E+03   -0.29098E-03   -0.32363E-02 14208   0.701E-01    0.325E-02
DAV:   2    -0.125541211286E+03   -0.17806E-04   -0.29846E-04 23904   0.715E-02    0.207E-02
DAV:   3    -0.125541211746E+03   -0.45972E-06   -0.16183E-05 16704   0.153E-02    0.508E-03
DAV:   4    -0.125541212154E+03   -0.40818E-06   -0.29540E-06 14784   0.801E-03
  37 F= -.12712957E+03 E0= -.12712879E+03  d E =-.159982E-03  mag=    -0.0000
       N       E                     dE             d eps       ncg     rms          rms(c)
DAV:   1    -0.125541614081E+03   -0.40233E-03   -0.12952E-01 14208   0.140E+00    0.651E-02
DAV:   2    -0.125541679483E+03   -0.65402E-04   -0.11143E-03 22944   0.139E-01    0.411E-02
DAV:   3    -0.125541678589E+03    0.89415E-06   -0.64843E-05 19008   0.298E-02    0.965E-03
DAV:   4    -0.125541679749E+03   -0.11606E-05   -0.10099E-05 16128   0.141E-02    0.340E-03
DAV:   5    -0.125541680099E+03   -0.34982E-06   -0.28014E-06 14976   0.849E-03
  38 F= -.12712958E+03 E0= -.12712879E+03  d E =-.163139E-03  mag=    -0.0000
       N       E                     dE             d eps       ncg     rms          rms(c)
DAV:   1    -0.125541462648E+03    0.21710E-03   -0.30576E-02 14208   0.681E-01    0.315E-02
DAV:   2    -0.125541477773E+03   -0.15125E-04   -0.27354E-04 21936   0.688E-02    0.199E-02
DAV:   3    -0.125541478164E+03   -0.39093E-06   -0.16467E-05 18672   0.161E-02    0.481E-03
DAV:   4    -0.125541478535E+03   -0.37099E-06   -0.41156E-06 14304   0.102E-02
  39 F= -.12712960E+03 E0= -.12712882E+03  d E =-.187536E-03  mag=     0.0000
       N       E                     dE             d eps       ncg     rms          rms(c)
DAV:   1    -0.125541539253E+03   -0.61089E-04   -0.92771E-04 14208   0.119E-01    0.539E-03
DAV:   2    -0.125541539409E+03   -0.15583E-06   -0.98219E-06 15840   0.140E-02
  40 F= -.12712962E+03 E0= -.12712884E+03  d E =-.216999E-04  mag=     0.0000
       N       E                     dE             d eps       ncg     rms          rms(c)
DAV:   1    -0.125541709340E+03   -0.17009E-03   -0.83268E-03 14208   0.356E-01    0.173E-02
DAV:   2    -0.125541713231E+03   -0.38915E-05   -0.77358E-05 14736   0.374E-02    0.110E-02
DAV:   3    -0.125541714385E+03   -0.11539E-05   -0.75691E-06 19584   0.129E-02    0.279E-03
DAV:   4    -0.125541714160E+03    0.22550E-06   -0.42051E-06 14208   0.106E-02
  41 F= -.12712968E+03 E0= -.12712890E+03  d E =-.788011E-04  mag=     0.0000
       N       E                     dE             d eps       ncg     rms          rms(c)
DAV:   1    -0.125542000446E+03   -0.28606E-03   -0.33513E-02 14208   0.714E-01    0.331E-02
DAV:   2    -0.125542018165E+03   -0.17719E-04   -0.30632E-04 22464   0.733E-02    0.211E-02
DAV:   3    -0.125542018467E+03   -0.30175E-06   -0.19100E-05 15552   0.171E-02    0.500E-03
DAV:   4    -0.125542018773E+03   -0.30603E-06   -0.38866E-06 16128   0.935E-03
  42 F= -.12712975E+03 E0= -.12712897E+03  d E =-.148234E-03  mag=     0.0000
       N       E                     dE             d eps       ncg     rms          rms(c)
DAV:   1    -0.125542393197E+03   -0.37473E-03   -0.13412E-01 14208   0.143E+00    0.663E-02
DAV:   2    -0.125542459420E+03   -0.66223E-04   -0.11561E-03 22656   0.143E-01    0.419E-02
DAV:   3    -0.125542457662E+03    0.17584E-05   -0.75674E-05 18192   0.328E-02    0.956E-03
DAV:   4    -0.125542458575E+03   -0.91297E-06   -0.12364E-05 16032   0.157E-02    0.374E-03
DAV:   5    -0.125542458870E+03   -0.29546E-06   -0.32772E-06 14304   0.920E-03
  43 F= -.12712972E+03 E0= -.12712893E+03  d E =-.118204E-03  mag=     0.0000
       N       E                     dE             d eps       ncg     rms          rms(c)
DAV:   1    -0.125542180587E+03    0.27799E-03   -0.53917E-02 14208   0.905E-01    0.419E-02
DAV:   2    -0.125542206506E+03   -0.25919E-04   -0.47735E-04 23472   0.917E-02    0.266E-02
DAV:   3    -0.125542206084E+03    0.42234E-06   -0.31631E-05 21744   0.221E-02    0.615E-03
DAV:   4    -0.125542206460E+03   -0.37606E-06   -0.70302E-06 14208   0.131E-02
  44 F= -.12712976E+03 E0= -.12712898E+03  d E =-.164047E-03  mag=     0.0000
       N       E                     dE             d eps       ncg     rms          rms(c)
DAV:   1    -0.125542333848E+03   -0.12776E-03   -0.46625E-03 14208   0.269E-01    0.121E-02
DAV:   2    -0.125542335333E+03   -0.14859E-05   -0.42798E-05 15552   0.284E-02    0.760E-03
DAV:   3    -0.125542336037E+03   -0.70367E-06   -0.49470E-06 17280   0.108E-02
  45 F= -.12712981E+03 E0= -.12712902E+03  d E =-.428086E-04  mag=    -0.0000
       N       E                     dE             d eps       ncg     rms          rms(c)
DAV:   1    -0.125542641792E+03   -0.30646E-03   -0.42053E-02 14208   0.808E-01    0.373E-02
DAV:   2    -0.125542661724E+03   -0.19932E-04   -0.36203E-04 23088   0.809E-02    0.237E-02
DAV:   3    -0.125542662064E+03   -0.33959E-06   -0.25522E-05 15744   0.209E-02    0.498E-03
DAV:   4    -0.125542662166E+03   -0.10228E-06   -0.76004E-06 14208   0.139E-02
  46 F= -.12712987E+03 E0= -.12712909E+03  d E =-.108866E-03  mag=     0.0000
       N       E                     dE             d eps       ncg     rms          rms(c)
DAV:   1    -0.125542809829E+03   -0.14777E-03   -0.64966E-03 14208   0.327E-01    0.151E-02
DAV:   2    -0.125542812210E+03   -0.23809E-05   -0.62524E-05 18912   0.347E-02    0.952E-03
DAV:   3    -0.125542813323E+03   -0.11133E-05   -0.69400E-06 15120   0.128E-02    0.278E-03
DAV:   4    -0.125542813145E+03    0.17888E-06   -0.45726E-06 14208   0.111E-02
  47 F= -.12712993E+03 E0= -.12712914E+03  d E =-.541111E-04  mag=     0.0000
       N       E                     dE             d eps       ncg     rms          rms(c)
DAV:   1    -0.125542990284E+03   -0.17696E-03   -0.15893E-02 14208   0.511E-01    0.234E-02
DAV:   2    -0.125542996503E+03   -0.62193E-05   -0.14903E-04 24288   0.525E-02    0.147E-02
DAV:   3    -0.125542996476E+03    0.27580E-07   -0.11125E-05 15696   0.136E-02    0.397E-03
DAV:   4    -0.125542996637E+03   -0.16111E-06   -0.28191E-06 15360   0.826E-03
  48 F= -.12712996E+03 E0= -.12712918E+03  d E =-.857293E-04  mag=     0.0000
       N       E                     dE             d eps       ncg     rms          rms(c)
DAV:   1    -0.125543106319E+03   -0.10984E-03   -0.46702E-03 14208   0.273E-01    0.124E-02
DAV:   2    -0.125543107570E+03   -0.12510E-05   -0.40125E-05 15984   0.272E-02    0.785E-03
DAV:   3    -0.125543107965E+03   -0.39424E-06   -0.42686E-06 14544   0.931E-03
  49 F= -.12712999E+03 E0= -.12712920E+03  d E =-.273171E-04  mag=     0.0000
       N       E                     dE             d eps       ncg     rms          rms(c)
DAV:   1    -0.125543236765E+03   -0.12919E-03   -0.89086E-03 14208   0.377E-01    0.174E-02
DAV:   2    -0.125543239120E+03   -0.23549E-05   -0.75137E-05 15696   0.372E-02    0.110E-02
DAV:   3    -0.125543239654E+03   -0.53422E-06   -0.80858E-06 14832   0.126E-02
  50 F= -.12713000E+03 E0= -.12712922E+03  d E =-.431912E-04  mag=    -0.0000
       N       E                     dE             d eps       ncg     rms          rms(c)
DAV:   1    -0.125543308616E+03   -0.69496E-04   -0.23777E-03 14400   0.206E-01    0.914E-03
DAV:   2    -0.125543308785E+03   -0.16908E-06   -0.20283E-05 15024   0.210E-02    0.575E-03
DAV:   3    -0.125543310024E+03   -0.12392E-05   -0.42646E-06 15216   0.107E-02    0.169E-03
DAV:   4    -0.125543309135E+03    0.88930E-06   -0.33631E-06 14592   0.930E-03
  51 F= -.12713002E+03 E0= -.12712924E+03  d E =-.189657E-04  mag=     0.0000
       N       E                     dE             d eps       ncg     rms          rms(c)
DAV:   1    -0.125543359380E+03   -0.49356E-04   -0.19258E-03 20400   0.185E-01    0.817E-03
DAV:   2    -0.125543359442E+03   -0.61917E-07   -0.11576E-05 20640   0.149E-02    0.489E-03
DAV:   3    -0.125543359565E+03   -0.12308E-06   -0.14563E-06 15648   0.504E-03
  52 F= -.12713003E+03 E0= -.12712924E+03  d E =-.239751E-04  mag=    -0.0000
       N       E                     dE             d eps       ncg     rms          rms(c)
DAV:   1    -0.125543425609E+03   -0.66167E-04   -0.34034E-03 14208   0.249E-01    0.107E-02
DAV:   2    -0.125543426229E+03   -0.61968E-06   -0.28026E-05 24240   0.233E-02    0.678E-03
DAV:   3    -0.125543426225E+03    0.36980E-08   -0.26117E-06 14208   0.686E-03
  53 F= -.12713004E+03 E0= -.12712926E+03  d E =-.123223E-04  mag=     0.0000
       N       E                     dE             d eps       ncg     rms          rms(c)
DAV:   1    -0.125543426001E+03    0.22762E-06   -0.71756E-07 14784   0.428E-03    0.692E-04
DAV:   2    -0.125543425964E+03    0.37890E-07   -0.24559E-07 14544   0.252E-03
  54 F= -.12713004E+03 E0= -.12712926E+03  d E =-.123221E-04  mag=     0.0000
       N       E                     dE             d eps       ncg     rms          rms(c)
DAV:   1    -0.125543449680E+03   -0.23678E-04   -0.52952E-04 14688   0.982E-02    0.437E-03
DAV:   2    -0.125543449738E+03   -0.58121E-07   -0.54486E-06 16992   0.104E-02
  55 F= -.12713004E+03 E0= -.12712926E+03  d E =-.610175E-05  mag=     0.0000
       N       E                     dE             d eps       ncg     rms          rms(c)
DAV:   1    -0.125543469071E+03   -0.19391E-04   -0.50646E-04 15360   0.965E-02    0.492E-03
DAV:   2    -0.125543469073E+03   -0.22983E-08   -0.47894E-06 17088   0.980E-03
  56 F= -.12713005E+03 E0= -.12712926E+03  d E =-.798150E-05  mag=     0.0000
       N       E                     dE             d eps       ncg     rms          rms(c)
DAV:   1    -0.125543485141E+03   -0.16071E-04   -0.23145E-04 21168   0.652E-02    0.332E-03
DAV:   2    -0.125543485053E+03    0.88839E-07   -0.16414E-06 14400   0.613E-03
  57 F= -.12713005E+03 E0= -.12712927E+03  d E =-.416499E-05  mag=     0.0000
       N       E                     dE             d eps       ncg     rms          rms(c)
DAV:   1    -0.125543527705E+03   -0.42564E-04   -0.21093E-03 19536   0.196E-01    0.864E-03
DAV:   2    -0.125543527426E+03    0.27986E-06   -0.13401E-05 14496   0.160E-02    0.525E-03
DAV:   3    -0.125543527675E+03   -0.24953E-06   -0.26210E-06 18576   0.752E-03
  58 F= -.12713006E+03 E0= -.12712927E+03  d E =-.113039E-04  mag=    -0.0000
       N       E                     dE             d eps       ncg     rms          rms(c)
DAV:   1    -0.125543536754E+03   -0.93285E-05   -0.13437E-04 14208   0.499E-02    0.230E-03
DAV:   2    -0.125543536688E+03    0.65897E-07   -0.19215E-06 14208   0.716E-03
  59 F= -.12713006E+03 E0= -.12712927E+03  d E =-.114818E-04  mag=    -0.0000
       N       E                     dE             d eps       ncg     rms          rms(c)
DAV:   1    -0.125543548599E+03   -0.11845E-04   -0.15162E-04 15696   0.529E-02    0.281E-03
DAV:   2    -0.125543548508E+03    0.90518E-07   -0.22545E-06 14208   0.775E-03
  60 F= -.12713006E+03 E0= -.12712928E+03  d E =-.312539E-05  mag=    -0.0000
       N       E                     dE             d eps       ncg     rms          rms(c)
DAV:   1    -0.125543575694E+03   -0.27096E-04   -0.11235E-03 15072   0.143E-01    0.713E-03
DAV:   2    -0.125543575523E+03    0.17156E-06   -0.11599E-05 14208   0.159E-02    0.434E-03
DAV:   3    -0.125543575551E+03   -0.27797E-07   -0.23270E-06 15264   0.769E-03
  61 F= -.12713006E+03 E0= -.12712928E+03  d E =-.634296E-05  mag=    -0.0000
       N       E                     dE             d eps       ncg     rms          rms(c)
DAV:   1    -0.125543581244E+03   -0.57207E-05   -0.37776E-05 14208   0.273E-02    0.152E-03
DAV:   2    -0.125543581167E+03    0.76158E-07   -0.10647E-06 15120   0.549E-03
  62 F= -.12713006E+03 E0= -.12712928E+03  d E =-.118196E-05  mag=     0.0000
       N       E                     dE             d eps       ncg     rms          rms(c)
DAV:   1    -0.125543598206E+03   -0.16963E-04   -0.32647E-04 14208   0.772E-02    0.366E-03
DAV:   2    -0.125543598205E+03    0.10023E-08   -0.31144E-06 14208   0.835E-03
  63 F= -.12713007E+03 E0= -.12712929E+03  d E =-.480835E-05  mag=     0.0000
       N       E                     dE             d eps       ncg     rms          rms(c)
DAV:   1    -0.125543630263E+03   -0.32057E-04   -0.12989E-03 15168   0.154E-01    0.709E-03
DAV:   2    -0.125543630276E+03   -0.13198E-07   -0.10434E-05 14208   0.146E-02    0.452E-03
DAV:   3    -0.125543630351E+03   -0.74745E-07   -0.19434E-06 14640   0.683E-03
  64 F= -.12713007E+03 E0= -.12712929E+03  d E =-.101305E-04  mag=    -0.0000
       N       E                     dE             d eps       ncg     rms          rms(c)
DAV:   1    -0.125543685535E+03   -0.55258E-04   -0.52294E-03 14208   0.308E-01    0.132E-02
DAV:   2    -0.125543686289E+03   -0.75475E-06   -0.43463E-05 16416   0.285E-02    0.857E-03
DAV:   3    -0.125543685922E+03    0.36774E-06   -0.43908E-06 14544   0.927E-03
  65 F= -.12713008E+03 E0= -.12712929E+03  d E =-.120653E-04  mag=    -0.0000
       N       E                     dE             d eps       ncg     rms          rms(c)
DAV:   1    -0.125543705553E+03   -0.19263E-04   -0.39539E-04 14208   0.858E-02    0.402E-03
DAV:   2    -0.125543705552E+03    0.86948E-09   -0.44809E-06 14256   0.107E-02
  66 F= -.12713008E+03 E0= -.12712930E+03  d E =-.495293E-05  mag=     0.0000
       N       E                     dE             d eps       ncg     rms          rms(c)
DAV:   1    -0.125543759476E+03   -0.53923E-04   -0.35445E-03 14208   0.255E-01    0.113E-02
DAV:   2    -0.125543760424E+03   -0.94817E-06   -0.31087E-05 14208   0.252E-02    0.761E-03
DAV:   3    -0.125543760651E+03   -0.22770E-06   -0.38766E-06 14592   0.102E-02
  67 F= -.12713009E+03 E0= -.12712931E+03  d E =-.159955E-04  mag=    -0.0000
       N       E                     dE             d eps       ncg     rms          rms(c)
DAV:   1    -0.125543844597E+03   -0.84173E-04   -0.14197E-02 14208   0.511E-01    0.212E-02
DAV:   2    -0.125543849554E+03   -0.49567E-05   -0.12043E-04 15648   0.477E-02    0.144E-02
DAV:   3    -0.125543848944E+03    0.60962E-06   -0.92893E-06 14880   0.146E-02
  68 F= -.12713009E+03 E0= -.12712931E+03  d E =-.160459E-04  mag=     0.0000
       N       E                     dE             d eps       ncg     rms          rms(c)
DAV:   1    -0.125543804206E+03    0.45347E-04   -0.41540E-03 14208   0.276E-01    0.109E-02
DAV:   2    -0.125543805063E+03   -0.85663E-06   -0.38319E-05 14208   0.282E-02    0.739E-03
DAV:   3    -0.125543805194E+03   -0.13143E-06   -0.46358E-06 14592   0.112E-02
  69 F= -.12713010E+03 E0= -.12712931E+03  d E =-.199904E-04  mag=    -0.0000
       N       E                     dE             d eps       ncg     rms          rms(c)
DAV:   1    -0.125543849346E+03   -0.44284E-04   -0.18275E-03 14208   0.184E-01    0.724E-03
DAV:   2    -0.125543849556E+03   -0.20916E-06   -0.17796E-05 14544   0.201E-02    0.485E-03
DAV:   3    -0.125543849815E+03   -0.25916E-06   -0.31160E-06 14352   0.931E-03
  70 F= -.12713011E+03 E0= -.12712933E+03  d E =-.143004E-04  mag=    -0.0000
       N       E                     dE             d eps       ncg     rms          rms(c)
DAV:   1    -0.125543957646E+03   -0.10809E-03   -0.16351E-02 14208   0.549E-01    0.229E-02
DAV:   2    -0.125543962702E+03   -0.50564E-05   -0.13537E-04 15552   0.505E-02    0.153E-02
DAV:   3    -0.125543961719E+03    0.98250E-06   -0.10287E-05 15264   0.150E-02    0.474E-03
DAV:   4    -0.125543961761E+03   -0.41812E-07   -0.40690E-06 14208   0.105E-02
  71 F= -.12713013E+03 E0= -.12712935E+03  d E =-.353025E-04  mag=     0.0000
       N       E                     dE             d eps       ncg     rms          rms(c)
DAV:   1    -0.125544012221E+03   -0.50501E-04   -0.26897E-03 14208   0.222E-01    0.923E-03
DAV:   2    -0.125544012765E+03   -0.54469E-06   -0.22184E-05 19344   0.212E-02    0.618E-03
DAV:   3    -0.125544012854E+03   -0.88975E-07   -0.27828E-06 15456   0.817E-03
  72 F= -.12713015E+03 E0= -.12712936E+03  d E =-.155845E-04  mag=    -0.0000
       N       E                     dE             d eps       ncg     rms          rms(c)
DAV:   1    -0.125544145456E+03   -0.13269E-03   -0.24158E-02 14208   0.664E-01    0.274E-02
DAV:   2    -0.125544150615E+03   -0.51590E-05   -0.18490E-04 16128   0.586E-02    0.181E-02
DAV:   3    -0.125544148475E+03    0.21406E-05   -0.15323E-05 14976   0.167E-02    0.490E-03
DAV:   4    -0.125544148520E+03   -0.45618E-07   -0.42620E-06 14208   0.104E-02
  73 F= -.12713018E+03 E0= -.12712939E+03  d E =-.447850E-04  mag=    -0.0000
       N       E                     dE             d eps       ncg     rms          rms(c)
DAV:   1    -0.125544327395E+03   -0.17892E-03   -0.96719E-02 14208   0.133E+00    0.548E-02
DAV:   2    -0.125544348776E+03   -0.21381E-04   -0.73957E-04 23184   0.116E-01    0.364E-02
DAV:   3    -0.125544337179E+03    0.11598E-04   -0.51785E-05 15360   0.275E-02    0.898E-03
DAV:   4    -0.125544337438E+03   -0.25921E-06   -0.81827E-06 14592   0.132E-02
  74 F= -.12713015E+03 E0= -.12712937E+03  d E =-.207796E-04  mag=     0.0000
       N       E                     dE             d eps       ncg     rms          rms(c)
DAV:   1    -0.125544203938E+03    0.13324E-03   -0.53106E-02 14208   0.985E-01    0.401E-02
DAV:   2    -0.125544213931E+03   -0.99930E-05   -0.40488E-04 18624   0.862E-02    0.265E-02
DAV:   3    -0.125544207628E+03    0.63031E-05   -0.31706E-05 21216   0.224E-02    0.703E-03
DAV:   4    -0.125544207756E+03   -0.12858E-06   -0.58172E-06 14208   0.119E-02
  75 F= -.12713018E+03 E0= -.12712940E+03  d E =-.489704E-04  mag=     0.0000
       N       E                     dE             d eps       ncg     rms          rms(c)
DAV:   1    -0.125544285410E+03   -0.77782E-04   -0.90105E-03 14208   0.407E-01    0.162E-02
DAV:   2    -0.125544287495E+03   -0.20852E-05   -0.70784E-05 18624   0.369E-02    0.108E-02
DAV:   3    -0.125544286706E+03    0.78937E-06   -0.63399E-06 16512   0.116E-02
  76 F= -.12713020E+03 E0= -.12712942E+03  d E =-.181215E-04  mag=     0.0000
       N       E                     dE             d eps       ncg     rms          rms(c)
DAV:   1    -0.125544330215E+03   -0.42720E-04   -0.39584E-03 14208   0.270E-01    0.114E-02
DAV:   2    -0.125544331259E+03   -0.10438E-05   -0.31419E-05 14208   0.255E-02    0.763E-03
DAV:   3    -0.125544331334E+03   -0.75624E-07   -0.39515E-06 15600   0.101E-02
  77 F= -.12713020E+03 E0= -.12712942E+03  d E =-.224196E-04  mag=    -0.0000
       N       E                     dE             d eps       ncg     rms          rms(c)
DAV:   1    -0.125544412781E+03   -0.81522E-04   -0.98346E-03 14208   0.426E-01    0.171E-02
DAV:   2    -0.125544416234E+03   -0.34532E-05   -0.72248E-05 16224   0.370E-02    0.118E-02
DAV:   3    -0.125544415884E+03    0.35020E-06   -0.55262E-06 15600   0.114E-02
  78 F= -.12713023E+03 E0= -.12712945E+03  d E =-.254020E-04  mag=    -0.0000
       N       E                     dE             d eps       ncg     rms          rms(c)
DAV:   1    -0.125544608832E+03   -0.19260E-03   -0.88556E-02 14208   0.128E+00    0.510E-02
DAV:   2    -0.125544640376E+03   -0.31544E-04   -0.62883E-04 18816   0.107E-01    0.350E-02
DAV:   3    -0.125544632871E+03    0.75055E-05   -0.37359E-05 16560   0.256E-02    0.852E-03
DAV:   4    -0.125544632902E+03   -0.31147E-07   -0.74340E-06 14208   0.135E-02
  79 F= -.12713027E+03 E0= -.12712949E+03  d E =-.649063E-04  mag=    -0.0000
       N       E                     dE             d eps       ncg     rms          rms(c)
DAV:   1    -0.125544706386E+03   -0.73515E-04   -0.81273E-03 14208   0.387E-01    0.158E-02
DAV:   2    -0.125544709555E+03   -0.31694E-05   -0.64132E-05 15504   0.353E-02    0.110E-02
DAV:   3    -0.125544709490E+03    0.65710E-07   -0.54876E-06 15024   0.118E-02
  80 F= -.12713029E+03 E0= -.12712951E+03  d E =-.242362E-04  mag=     0.0000
       N       E                     dE             d eps       ncg     rms          rms(c)
DAV:   1    -0.125544847844E+03   -0.13829E-03   -0.49350E-02 14208   0.952E-01    0.385E-02
DAV:   2    -0.125544866495E+03   -0.18650E-04   -0.37224E-04 17760   0.826E-02    0.264E-02
DAV:   3    -0.125544862614E+03    0.38802E-05   -0.23064E-05 15792   0.212E-02    0.709E-03
DAV:   4    -0.125544862547E+03    0.67958E-07   -0.59667E-06 14208   0.124E-02
  81 F= -.12713031E+03 E0= -.12712953E+03  d E =-.477439E-04  mag=    -0.0000
       N       E                     dE             d eps       ncg     rms          rms(c)
DAV:   1    -0.125544945197E+03   -0.82583E-04   -0.12522E-02 14208   0.480E-01    0.191E-02
DAV:   2    -0.125544950182E+03   -0.49851E-05   -0.92497E-05 18672   0.412E-02    0.134E-02
DAV:   3    -0.125544949682E+03    0.50090E-06   -0.63806E-06 15840   0.118E-02
  82 F= -.12713034E+03 E0= -.12712955E+03  d E =-.219277E-04  mag=    -0.0000
       N       E                     dE             d eps       ncg     rms          rms(c)
DAV:   1    -0.125545162511E+03   -0.21233E-03   -0.11248E-01 14208   0.144E+00    0.568E-02
DAV:   2    -0.125545205216E+03   -0.42704E-04   -0.79666E-04 16560   0.119E-01    0.394E-02
DAV:   3    -0.125545195904E+03    0.93115E-05   -0.46348E-05 14736   0.283E-02    0.998E-03
DAV:   4    -0.125545195908E+03   -0.44765E-08   -0.79453E-06 14208   0.133E-02
  83 F= -.12713039E+03 E0= -.12712961E+03  d E =-.726695E-04  mag=     0.0000
       N       E                     dE             d eps       ncg     rms          rms(c)
DAV:   1    -0.125545491068E+03   -0.29516E-03   -0.45037E-01 14208   0.288E+00    0.114E-01
DAV:   2    -0.125545660727E+03   -0.16966E-03   -0.31663E-03 19296   0.238E-01    0.790E-02
DAV:   3    -0.125545617695E+03    0.43032E-04   -0.17846E-04 16848   0.524E-02    0.186E-02
DAV:   4    -0.125545617786E+03   -0.91261E-07   -0.23913E-05 16416   0.205E-02    0.558E-03
DAV:   5    -0.125545617641E+03    0.14481E-06   -0.40321E-06 14400   0.965E-03
  84 F= -.12713042E+03 E0= -.12712964E+03  d E =-.103679E-03  mag=     0.0000
       N       E                     dE             d eps       ncg     rms          rms(c)
DAV:   1    -0.125545702869E+03   -0.85082E-04   -0.12537E-02 14208   0.480E-01    0.190E-02
DAV:   2    -0.125545707480E+03   -0.46114E-05   -0.88818E-05 17088   0.407E-02    0.132E-02
DAV:   3    -0.125545707046E+03    0.43365E-06   -0.63085E-06 15264   0.117E-02
  85 F= -.12713044E+03 E0= -.12712966E+03  d E =-.262940E-04  mag=     0.0000
       N       E                     dE             d eps       ncg     rms          rms(c)
DAV:   1    -0.125545927476E+03   -0.22000E-03   -0.11269E-01 14208   0.144E+00    0.569E-02
DAV:   2    -0.125545967717E+03   -0.40241E-04   -0.77119E-04 14400   0.118E-01    0.391E-02
DAV:   3    -0.125545958036E+03    0.96814E-05   -0.48120E-05 14208   0.290E-02    0.984E-03
DAV:   4    -0.125545958118E+03   -0.82748E-07   -0.70748E-06 14208   0.125E-02
  86 F= -.12713051E+03 E0= -.12712972E+03  d E =-.879689E-04  mag=     0.0000
       N       E                     dE             d eps       ncg     rms          rms(c)
DAV:   1    -0.125546272913E+03   -0.31488E-03   -0.45125E-01 14208   0.288E+00    0.114E-01
DAV:   2    -0.125546432350E+03   -0.15944E-03   -0.30673E-03 16320   0.236E-01    0.783E-02
DAV:   3    -0.125546388035E+03    0.44314E-04   -0.18612E-04 14784   0.548E-02    0.186E-02
DAV:   4    -0.125546388481E+03   -0.44557E-06   -0.23047E-05 15936   0.207E-02    0.596E-03
DAV:   5    -0.125546388402E+03    0.78175E-07   -0.46235E-06 14208   0.105E-02
  87 F= -.12713056E+03 E0= -.12712978E+03  d E =-.139404E-03  mag=     0.0000
       N       E                     dE             d eps       ncg     rms          rms(c)
DAV:   1    -0.125546612111E+03   -0.22363E-03   -0.91327E-02 14208   0.129E+00    0.513E-02
DAV:   2    -0.125546642006E+03   -0.29895E-04   -0.62848E-04 16464   0.107E-01    0.352E-02
DAV:   3    -0.125546633458E+03    0.85483E-05   -0.39710E-05 14208   0.257E-02    0.861E-03
DAV:   4    -0.125546633578E+03   -0.12002E-06   -0.57813E-06 14496   0.112E-02
  88 F= -.12713064E+03 E0= -.12712986E+03  d E =-.825098E-04  mag=    -0.0000
       N       E                     dE             d eps       ncg     rms          rms(c)
DAV:   1    -0.125547091327E+03   -0.45787E-03   -0.82200E-01 14208   0.388E+00    0.155E-01
DAV:   2    -0.125547349899E+03   -0.25857E-03   -0.55177E-03 18144   0.316E-01    0.106E-01
DAV:   3    -0.125547260239E+03    0.89660E-04   -0.34412E-04 16224   0.717E-02    0.241E-02
DAV:   4    -0.125547261309E+03   -0.10698E-05   -0.37868E-05 18816   0.247E-02    0.770E-03
DAV:   5    -0.125547261142E+03    0.16714E-06   -0.49319E-06 14496   0.101E-02
  89 F= -.12713078E+03 E0= -.12713000E+03  d E =-.222589E-03  mag=     0.0000
       N       E                     dE             d eps       ncg     rms          rms(c)
DAV:   1    -0.125547429283E+03   -0.16797E-03   -0.11696E-01 14208   0.147E+00    0.582E-02
DAV:   2    -0.125547466258E+03   -0.36975E-04   -0.79398E-04 15504   0.120E-01    0.397E-02
DAV:   3    -0.125547455693E+03    0.10565E-04   -0.52317E-05 14256   0.302E-02    0.987E-03
DAV:   4    -0.125547455714E+03   -0.20423E-07   -0.87142E-06 14208   0.143E-02
  90 F= -.12713079E+03 E0= -.12713001E+03  d E =-.233452E-03  mag=    -0.0000
       N       E                     dE             d eps       ncg     rms          rms(c)
DAV:   1    -0.125547717132E+03   -0.26144E-03   -0.15838E-01 14208   0.171E+00    0.676E-02
DAV:   2    -0.125547772355E+03   -0.55223E-04   -0.10724E-03 16464   0.139E-01    0.466E-02
DAV:   3    -0.125547758270E+03    0.14084E-04   -0.65366E-05 14256   0.334E-02    0.113E-02
DAV:   4    -0.125547758370E+03   -0.99628E-07   -0.98568E-06 14208   0.149E-02
  91 F= -.12713089E+03 E0= -.12713010E+03  d E =-.945849E-04  mag=    -0.0000
       N       E                     dE             d eps       ncg     rms          rms(c)
DAV:   1    -0.125548195935E+03   -0.43766E-03   -0.14247E+00 14208   0.511E+00    0.202E-01
DAV:   2    -0.125548677608E+03   -0.48167E-03   -0.94980E-03 17808   0.414E-01    0.139E-01
DAV:   3    -0.125548531289E+03    0.14632E-03   -0.56888E-04 15936   0.933E-02    0.322E-02
DAV:   4    -0.125548532688E+03   -0.13993E-05   -0.62982E-05 18432   0.325E-02    0.990E-03
DAV:   5    -0.125548532478E+03    0.21009E-06   -0.96875E-06 14352   0.143E-02
  92 F= -.12713104E+03 E0= -.12713025E+03  d E =-.244499E-03  mag=    -0.0000
       N       E                     dE             d eps       ncg     rms          rms(c)
DAV:   1    -0.125548787195E+03   -0.25451E-03   -0.13497E-01 14208   0.157E+00    0.627E-02
DAV:   2    -0.125548836424E+03   -0.49229E-04   -0.96109E-04 14496   0.133E-01    0.431E-02
DAV:   3    -0.125548826512E+03    0.99116E-05   -0.61167E-05 14592   0.342E-02    0.123E-02
DAV:   4    -0.125548826110E+03    0.40229E-06   -0.13541E-05 14208   0.183E-02    0.370E-03
DAV:   5    -0.125548825455E+03    0.65484E-06   -0.54163E-06 14208   0.117E-02
  93 F= -.12713115E+03 E0= -.12713037E+03  d E =-.113638E-03  mag=     0.0000
       N       E                     dE             d eps       ncg     rms          rms(c)
DAV:   1    -0.125549023167E+03   -0.19706E-03   -0.17179E-01 14208   0.178E+00    0.705E-02
DAV:   2    -0.125549088613E+03   -0.65446E-04   -0.12442E-03 20832   0.149E-01    0.490E-02
DAV:   3    -0.125549072166E+03    0.16447E-04   -0.69646E-05 22656   0.322E-02    0.128E-02
DAV:   4    -0.125549072085E+03    0.81683E-07   -0.90961E-06 15264   0.121E-02
  94 F= -.12713119E+03 E0= -.12713041E+03  d E =-.157786E-03  mag=     0.0000
       N       E                     dE             d eps       ncg     rms          rms(c)
DAV:   1    -0.125549194800E+03   -0.12263E-03   -0.54690E-02 14208   0.100E+00    0.399E-02
DAV:   2    -0.125549215035E+03   -0.20234E-04   -0.37743E-04 26448   0.821E-02    0.279E-02
DAV:   3    -0.125549210073E+03    0.49616E-05   -0.21041E-05 14832   0.176E-02    0.603E-03
DAV:   4    -0.125549210066E+03    0.66193E-08   -0.36051E-06 14400   0.806E-03
  95 F= -.12713124E+03 E0= -.12713046E+03  d E =-.465768E-04  mag=     0.0000
       N       E                     dE             d eps       ncg     rms          rms(c)
DAV:   1    -0.125549381162E+03   -0.17109E-03   -0.25389E-01 14208   0.216E+00    0.857E-02
DAV:   2    -0.125549469704E+03   -0.88542E-04   -0.17183E-03 21744   0.176E-01    0.593E-02
DAV:   3    -0.125549444569E+03    0.25135E-04   -0.99919E-05 15408   0.384E-02    0.137E-02
DAV:   4    -0.125549444639E+03   -0.70115E-07   -0.13521E-05 14400   0.144E-02    0.414E-03
DAV:   5    -0.125549444663E+03   -0.23499E-07   -0.16695E-06 15168   0.580E-03
  96 F= -.12713128E+03 E0= -.12713050E+03  d E =-.840844E-04  mag=    -0.0000
       N       E                     dE             d eps       ncg     rms          rms(c)
DAV:   1    -0.125549535382E+03   -0.90742E-04   -0.31143E-02 14208   0.757E-01    0.299E-02
DAV:   2    -0.125549545686E+03   -0.10305E-04   -0.20665E-04 15168   0.614E-02    0.206E-02
DAV:   3    -0.125549543248E+03    0.24379E-05   -0.13779E-05 21072   0.160E-02    0.515E-03
DAV:   4    -0.125549543206E+03    0.42789E-07   -0.28830E-06 14208   0.856E-03
  97 F= -.12713132E+03 E0= -.12713053E+03  d E =-.379414E-04  mag=    -0.0000
       N       E                     dE             d eps       ncg     rms          rms(c)
DAV:   1    -0.125549729393E+03   -0.18615E-03   -0.28029E-01 14208   0.227E+00    0.899E-02
DAV:   2    -0.125549820792E+03   -0.91398E-04   -0.18262E-03 17184   0.181E-01    0.618E-02
DAV:   3    -0.125549792562E+03    0.28229E-04   -0.11150E-04 14496   0.418E-02    0.142E-02
DAV:   4    -0.125549792908E+03   -0.34618E-06   -0.13636E-05 14400   0.157E-02    0.449E-03
DAV:   5    -0.125549792841E+03    0.67747E-07   -0.26640E-06 14448   0.789E-03
  98 F= -.12713138E+03 E0= -.12713060E+03  d E =-.106096E-03  mag=    -0.0000
       N       E                     dE             d eps       ncg     rms          rms(c)
DAV:   1    -0.125549848011E+03   -0.55103E-04   -0.11208E+00 14208   0.454E+00    0.180E-01
DAV:   2    -0.125550212387E+03   -0.36438E-03   -0.72844E-03 20208   0.362E-01    0.124E-01
DAV:   3    -0.125550091070E+03    0.12132E-03   -0.43747E-04 16800   0.798E-02    0.265E-02
DAV:   4    -0.125550091691E+03   -0.62064E-06   -0.49944E-05 14976   0.280E-02    0.858E-03
DAV:   5    -0.125550091470E+03    0.22137E-06   -0.62669E-06 14592   0.113E-02
  99 F= -.12713132E+03 E0= -.12713054E+03  d E =-.419861E-04  mag=     0.0000
       N       E                     dE             d eps       ncg     rms          rms(c)
DAV:   1    -0.125549767676E+03    0.32401E-03   -0.60760E-01 14208   0.334E+00    0.132E-01
DAV:   2    -0.125549962709E+03   -0.19503E-03   -0.39736E-03 18048   0.267E-01    0.908E-02
DAV:   3    -0.125549898833E+03    0.63876E-04   -0.24777E-04 22032   0.617E-02    0.211E-02
DAV:   4    -0.125549898503E+03    0.33004E-06   -0.29981E-05 14256   0.242E-02    0.650E-03
DAV:   5    -0.125549898312E+03    0.19081E-06   -0.69116E-06 14208   0.130E-02
 100 F= -.12713139E+03 E0= -.12713061E+03  d E =-.115957E-03  mag=    -0.0000
       N       E                     dE             d eps       ncg     rms          rms(c)
DAV:   1    -0.125550005789E+03   -0.10729E-03   -0.51948E-02 14208   0.977E-01    0.385E-02
DAV:   2    -0.125550021893E+03   -0.16104E-04   -0.34906E-04 19152   0.794E-02    0.266E-02
DAV:   3    -0.125550017064E+03    0.48292E-05   -0.22631E-05 17376   0.206E-02    0.667E-03
DAV:   4    -0.125550016954E+03    0.10919E-06   -0.58037E-06 14208   0.123E-02
 101 F= -.12713145E+03 E0= -.12713067E+03  d E =-.538262E-04  mag=     0.0000
       N       E                     dE             d eps       ncg     rms          rms(c)
DAV:   1    -0.125550152251E+03   -0.13519E-03   -0.21590E-01 14208   0.199E+00    0.794E-02
DAV:   2    -0.125550223764E+03   -0.71512E-04   -0.14295E-03 20064   0.160E-01    0.548E-02
DAV:   3    -0.125550201857E+03    0.21907E-04   -0.83414E-05 16560   0.360E-02    0.124E-02
DAV:   4    -0.125550201991E+03   -0.13411E-06   -0.11002E-05 14208   0.150E-02    0.398E-03
DAV:   5    -0.125550201943E+03    0.48231E-07   -0.26792E-06 14208   0.823E-03
 102 F= -.12713150E+03 E0= -.12713072E+03  d E =-.106631E-03  mag=     0.0000
       N       E                     dE             d eps       ncg     rms          rms(c)
DAV:   1    -0.125550319437E+03   -0.11745E-03   -0.74582E-02 14208   0.117E+00    0.466E-02
DAV:   2    -0.125550343282E+03   -0.23845E-04   -0.49547E-04 17808   0.943E-02    0.321E-02
DAV:   3    -0.125550336452E+03    0.68302E-05   -0.29189E-05 14688   0.222E-02    0.816E-03
DAV:   4    -0.125550336533E+03   -0.81907E-07   -0.44862E-06 14208   0.100E-02
 103 F= -.12713158E+03 E0= -.12713079E+03  d E =-.755964E-04  mag=    -0.0000
       N       E                     dE             d eps       ncg     rms          rms(c)
DAV:   1    -0.125550435597E+03   -0.99146E-04   -0.16000E-01 14208   0.171E+00    0.685E-02
DAV:   2    -0.125550486738E+03   -0.51141E-04   -0.10556E-03 18432   0.138E-01    0.470E-02
DAV:   3    -0.125550471390E+03    0.15348E-04   -0.60186E-05 14496   0.311E-02    0.118E-02
DAV:   4    -0.125550471544E+03   -0.15425E-06   -0.79493E-06 15072   0.123E-02
 104 F= -.12713162E+03 E0= -.12713084E+03  d E =-.124021E-03  mag=    -0.0000
       N       E                     dE             d eps       ncg     rms          rms(c)
DAV:   1    -0.125550548755E+03   -0.77365E-04   -0.11433E-01 14208   0.145E+00    0.582E-02
DAV:   2    -0.125550585661E+03   -0.36905E-04   -0.77263E-04 18336   0.119E-01    0.399E-02
DAV:   3    -0.125550573897E+03    0.11763E-04   -0.51969E-05 14736   0.288E-02    0.992E-03
DAV:   4    -0.125550573868E+03    0.29495E-07   -0.78919E-06 14208   0.122E-02
 105 F= -.12713169E+03 E0= -.12713091E+03  d E =-.634961E-04  mag=     0.0000
       N       E                     dE             d eps       ncg     rms          rms(c)
DAV:   1    -0.125550586611E+03   -0.12714E-04   -0.69048E-03 14208   0.356E-01    0.146E-02
DAV:   2    -0.125550589143E+03   -0.25312E-05   -0.48645E-05 15840   0.305E-02    0.100E-02
DAV:   3    -0.125550588804E+03    0.33832E-06   -0.39258E-06 14976   0.924E-03
 106 F= -.12713169E+03 E0= -.12713091E+03  d E =-.689091E-04  mag=    -0.0000
       N       E                     dE             d eps       ncg     rms          rms(c)
DAV:   1    -0.125550599968E+03   -0.10825E-04   -0.27506E-02 14208   0.711E-01    0.285E-02
DAV:   2    -0.125550608986E+03   -0.90185E-05   -0.18758E-04 15792   0.588E-02    0.195E-02
DAV:   3    -0.125550606503E+03    0.24838E-05   -0.13089E-05 14784   0.153E-02    0.528E-03
DAV:   4    -0.125550606483E+03    0.20145E-07   -0.26449E-06 14208   0.787E-03
 107 F= -.12713169E+03 E0= -.12713091E+03  d E =-.675140E-04  mag=    -0.0000
       N       E                     dE             d eps       ncg     rms          rms(c)
DAV:   1    -0.125550594401E+03    0.12102E-04   -0.11835E-02 14208   0.466E-01    0.184E-02
DAV:   2    -0.125550597776E+03   -0.33758E-05   -0.81431E-05 14256   0.388E-02    0.126E-02
DAV:   3    -0.125550596601E+03    0.11757E-05   -0.60150E-06 15168   0.106E-02    0.355E-03
DAV:   4    -0.125550596610E+03   -0.91968E-08   -0.13744E-06 14208   0.582E-03
 108 F= -.12713169E+03 E0= -.12713091E+03  d E =-.701603E-04  mag=    -0.0000
       N       E                     dE             d eps       ncg     rms          rms(c)
DAV:   1    -0.125550638622E+03   -0.42022E-04   -0.11148E-01 14208   0.143E+00    0.567E-02
DAV:   2    -0.125550670609E+03   -0.31986E-04   -0.71447E-04 17664   0.114E-01    0.387E-02
DAV:   3    -0.125550658529E+03    0.12079E-04   -0.48865E-05 17616   0.270E-02    0.931E-03
DAV:   4    -0.125550658587E+03   -0.58103E-07   -0.58508E-06 14304   0.100E-02
 109 F= -.12713176E+03 E0= -.12713098E+03  d E =-.625227E-04  mag=    -0.0000
       N       E                     dE             d eps       ncg     rms          rms(c)
DAV:   1    -0.125550663475E+03   -0.49460E-05   -0.87376E-02 14208   0.127E+00    0.506E-02
DAV:   2    -0.125550689918E+03   -0.26443E-04   -0.55962E-04 15504   0.101E-01    0.345E-02
DAV:   3    -0.125550681185E+03    0.87336E-05   -0.38859E-05 15456   0.247E-02    0.850E-03
DAV:   4    -0.125550681278E+03   -0.92804E-07   -0.50377E-06 14208   0.972E-03
 110 F= -.12713178E+03 E0= -.12713100E+03  d E =-.855344E-04  mag=    -0.0000
       N       E                     dE             d eps       ncg     rms          rms(c)
DAV:   1    -0.125550710352E+03   -0.29167E-04   -0.72858E-02 14208   0.116E+00    0.462E-02
DAV:   2    -0.125550733757E+03   -0.23405E-04   -0.46370E-04 14304   0.915E-02    0.317E-02
DAV:   3    -0.125550727184E+03    0.65735E-05   -0.29286E-05 16608   0.224E-02    0.812E-03
DAV:   4    -0.125550727284E+03   -0.10034E-06   -0.39900E-06 14208   0.941E-03
 111 F= -.12713185E+03 E0= -.12713107E+03  d E =-.673500E-04  mag=    -0.0000
       N       E                     dE             d eps       ncg     rms          rms(c)
DAV:   1    -0.125550676018E+03    0.51166E-04   -0.32235E-01 14208   0.243E+00    0.971E-02
DAV:   2    -0.125550777494E+03   -0.10148E-03   -0.20412E-03 16512   0.192E-01    0.665E-02
DAV:   3    -0.125550745353E+03    0.32141E-04   -0.12471E-04 17664   0.443E-02    0.161E-02
DAV:   4    -0.125550745498E+03   -0.14569E-06   -0.14549E-05 14208   0.165E-02    0.486E-03
DAV:   5    -0.125550745483E+03    0.15398E-07   -0.30858E-06 14400   0.867E-03
 112 F= -.12713191E+03 E0= -.12713113E+03  d E =-.130065E-03  mag=    -0.0000
       N       E                     dE             d eps       ncg     rms          rms(c)
DAV:   1    -0.125550751465E+03   -0.59664E-05   -0.82651E-02 14208   0.123E+00    0.488E-02
DAV:   2    -0.125550780188E+03   -0.28723E-04   -0.52448E-04 14592   0.970E-02    0.337E-02
DAV:   3    -0.125550773092E+03    0.70951E-05   -0.31010E-05 17712   0.240E-02    0.841E-03
DAV:   4    -0.125550773102E+03   -0.96261E-08   -0.55158E-06 14208   0.118E-02
 113 F= -.12713198E+03 E0= -.12713119E+03  d E =-.663712E-04  mag=     0.0000
       N       E                     dE             d eps       ncg     rms          rms(c)
DAV:   1    -0.125550650648E+03    0.12244E-03   -0.46752E-01 14208   0.293E+00    0.116E-01
DAV:   2    -0.125550813344E+03   -0.16270E-03   -0.29585E-03 18576   0.229E-01    0.808E-02
DAV:   3    -0.125550767369E+03    0.45974E-04   -0.16510E-04 19152   0.506E-02    0.177E-02
DAV:   4    -0.125550767334E+03    0.35508E-07   -0.20626E-05 15168   0.202E-02    0.529E-03
DAV:   5    -0.125550767249E+03    0.85361E-07   -0.48084E-06 14784   0.109E-02
 114 F= -.12713206E+03 E0= -.12713128E+03  d E =-.152552E-03  mag=     0.0000
       N       E                     dE             d eps       ncg     rms          rms(c)
DAV:   1    -0.125550769916E+03   -0.25821E-05   -0.16730E-01 14208   0.176E+00    0.692E-02
DAV:   2    -0.125550829450E+03   -0.59534E-04   -0.10982E-03 18528   0.140E-01    0.481E-02
DAV:   3    -0.125550813577E+03    0.15874E-04   -0.64211E-05 19392   0.326E-02    0.113E-02
DAV:   4    -0.125550813293E+03    0.28343E-06   -0.11401E-05 14304   0.160E-02    0.338E-03
DAV:   5    -0.125550813160E+03    0.13334E-06   -0.38970E-06 14208   0.984E-03
 115 F= -.12713218E+03 E0= -.12713140E+03  d E =-.120120E-03  mag=    -0.0000
       N       E                     dE             d eps       ncg     rms          rms(c)
DAV:   1    -0.125550395185E+03    0.41811E-03   -0.14619E+00 14208   0.519E+00    0.205E-01
DAV:   2    -0.125550900909E+03   -0.50572E-03   -0.94516E-03 19248   0.410E-01    0.142E-01
DAV:   3    -0.125550750333E+03    0.15058E-03   -0.53694E-04 19248   0.885E-02    0.326E-02
DAV:   4    -0.125550749515E+03    0.81741E-06   -0.64769E-05 22224   0.309E-02    0.949E-03
DAV:   5    -0.125550749045E+03    0.46976E-06   -0.53324E-06 15984   0.103E-02
 116 F= -.12713234E+03 E0= -.12713156E+03  d E =-.275008E-03  mag=    -0.0000
       N       E                     dE             d eps       ncg     rms          rms(c)
DAV:   1    -0.125550731501E+03    0.18014E-04   -0.86008E-02 14208   0.126E+00    0.493E-02
DAV:   2    -0.125550762568E+03   -0.31067E-04   -0.56698E-04 18240   0.101E-01    0.343E-02
DAV:   3    -0.125550754791E+03    0.77763E-05   -0.35302E-05 19632   0.255E-02    0.807E-03
DAV:   4    -0.125550754529E+03    0.26268E-06   -0.90805E-06 14208   0.151E-02
 117 F= -.12713240E+03 E0= -.12713162E+03  d E =-.657740E-04  mag=     0.0000
       N       E                     dE             d eps       ncg     rms          rms(c)
DAV:   1    -0.125550509376E+03    0.24542E-03   -0.77366E-01 14208   0.377E+00    0.149E-01
DAV:   2    -0.125550777735E+03   -0.26836E-03   -0.49963E-03 20640   0.299E-01    0.103E-01
DAV:   3    -0.125550697958E+03    0.79777E-04   -0.29648E-04 20112   0.660E-02    0.226E-02
DAV:   4    -0.125550697326E+03    0.63175E-06   -0.36750E-05 14784   0.253E-02    0.701E-03
DAV:   5    -0.125550697165E+03    0.16103E-06   -0.62595E-06 15648   0.120E-02
 118 F= -.12713253E+03 E0= -.12713174E+03  d E =-.189028E-03  mag=    -0.0000
       N       E                     dE             d eps       ncg     rms          rms(c)
DAV:   1    -0.125549540039E+03    0.11573E-02   -0.30935E+00 14208   0.755E+00    0.297E-01
DAV:   2    -0.125550600190E+03   -0.10602E-02   -0.19867E-02 19152   0.596E-01    0.206E-01
DAV:   3    -0.125550272576E+03    0.32761E-03   -0.11444E-03 19056   0.129E-01    0.464E-02
DAV:   4    -0.125550270658E+03    0.19171E-05   -0.13716E-04 22992   0.463E-02    0.139E-02
DAV:   5    -0.125550269564E+03    0.10943E-05   -0.13817E-05 15504   0.176E-02    0.621E-03
DAV:   6    -0.125550270920E+03   -0.13556E-05   -0.10185E-05 20016   0.160E-02    0.235E-03
DAV:   7    -0.125550269435E+03    0.14852E-05   -0.40701E-06 21264   0.994E-03    0.627E-04
DAV:   8    -0.125550269570E+03   -0.13556E-06   -0.12061E-07 25968   0.165E-03
 119 F= -.12713246E+03 E0= -.12713168E+03  d E =-.121963E-03  mag=     0.0000
       N       E                     dE             d eps       ncg     rms          rms(c)
DAV:   1    -0.125550291677E+03   -0.22243E-04   -0.13513E+00 14208   0.499E+00    0.196E-01
DAV:   2    -0.125550743371E+03   -0.45169E-03   -0.85966E-03 21216   0.390E-01    0.136E-01
DAV:   3    -0.125550600113E+03    0.14326E-03   -0.51725E-04 19008   0.851E-02    0.286E-02
DAV:   4    -0.125550599781E+03    0.33230E-06   -0.57923E-05 20880   0.280E-02    0.918E-03
DAV:   5    -0.125550599588E+03    0.19307E-06   -0.38333E-06 22032   0.748E-03
 120 F= -.12713255E+03 E0= -.12713177E+03  d E =-.213845E-03  mag=     0.0000
       N       E                     dE             d eps       ncg     rms          rms(c)
DAV:   1    -0.125550578992E+03    0.20789E-04   -0.17309E-01 14208   0.178E+00    0.703E-02
DAV:   2    -0.125550631408E+03   -0.52416E-04   -0.10950E-03 16128   0.139E-01    0.482E-02
DAV:   3    -0.125550613742E+03    0.17666E-04   -0.66907E-05 14592   0.319E-02    0.113E-02
DAV:   4    -0.125550614096E+03   -0.35368E-06   -0.69567E-06 20016   0.102E-02
 121 F= -.12713267E+03 E0= -.12713188E+03  d E =-.114282E-03  mag=    -0.0000
       N       E                     dE             d eps       ncg     rms          rms(c)
DAV:   1    -0.125550225184E+03    0.38856E-03   -0.15592E+00 14208   0.535E+00    0.212E-01
DAV:   2    -0.125550711524E+03   -0.48634E-03   -0.97979E-03 16512   0.419E-01    0.145E-01
DAV:   3    -0.125550549180E+03    0.16234E-03   -0.58969E-04 20016   0.940E-02    0.337E-02
DAV:   4    -0.125550550329E+03   -0.11491E-05   -0.55103E-05 22752   0.284E-02    0.997E-03
DAV:   5    -0.125550549438E+03    0.89192E-06   -0.50137E-06 18288   0.871E-03
 122 F= -.12713290E+03 E0= -.12713212E+03  d E =-.349091E-03  mag=    -0.0000
       N       E                     dE             d eps       ncg     rms          rms(c)
DAV:   1    -0.125548641803E+03    0.19085E-02   -0.62326E+00 14208   0.107E+01    0.423E-01
DAV:   2    -0.125550637037E+03   -0.19952E-02   -0.39735E-02 20448   0.838E-01    0.291E-01
DAV:   3    -0.125549939301E+03    0.69774E-03   -0.22608E-03 19920   0.178E-01    0.626E-02
DAV:   4    -0.125549940336E+03   -0.10353E-05   -0.23294E-04 25920   0.570E-02    0.192E-02
DAV:   5    -0.125549937884E+03    0.24514E-05   -0.15273E-05 20544   0.155E-02    0.813E-03
DAV:   6    -0.125549937757E+03    0.12764E-06   -0.43798E-06 22848   0.972E-03
 123 F= -.12713289E+03 E0= -.12713211E+03  d E =-.335291E-03  mag=    -0.0000
       N       E                     dE             d eps       ncg     rms          rms(c)
DAV:   1    -0.125549982427E+03   -0.44542E-04   -0.17090E+00 14208   0.561E+00    0.221E-01
DAV:   2    -0.125550527130E+03   -0.54470E-03   -0.10912E-02 21792   0.439E-01    0.153E-01
DAV:   3    -0.125550338495E+03    0.18864E-03   -0.64895E-04 19008   0.953E-02    0.317E-02
DAV:   4    -0.125550339415E+03   -0.91914E-06   -0.63024E-05 20160   0.306E-02    0.102E-02
DAV:   5    -0.125550338947E+03    0.46770E-06   -0.53383E-06 16464   0.996E-03
 124 F= -.12713298E+03 E0= -.12713219E+03  d E =-.423588E-03  mag=    -0.0000
       N       E                     dE             d eps       ncg     rms          rms(c)
DAV:   1    -0.125550326097E+03    0.13317E-04   -0.11398E-01 14208   0.145E+00    0.569E-02
DAV:   2    -0.125550363609E+03   -0.37512E-04   -0.73840E-04 19008   0.115E-01    0.395E-02
DAV:   3    -0.125550352028E+03    0.11581E-04   -0.44777E-05 18768   0.274E-02    0.887E-03
DAV:   4    -0.125550351998E+03    0.29280E-07   -0.80370E-06 14208   0.140E-02
 125 F= -.12713307E+03 E0= -.12713229E+03  d E =-.976687E-04  mag=    -0.0000
       N       E                     dE             d eps       ncg     rms          rms(c)
DAV:   1    -0.125550096408E+03    0.25562E-03   -0.10268E+00 14208   0.435E+00    0.171E-01
DAV:   2    -0.125550439331E+03   -0.34292E-03   -0.65666E-03 20736   0.342E-01    0.119E-01
DAV:   3    -0.125550331422E+03    0.10791E-03   -0.38643E-04 19872   0.752E-02    0.249E-02
DAV:   4    -0.125550331565E+03   -0.14290E-06   -0.41715E-05 14880   0.273E-02    0.789E-03
DAV:   5    -0.125550331382E+03    0.18293E-06   -0.74549E-06 15264   0.132E-02
 126 F= -.12713331E+03 E0= -.12713252E+03  d E =-.330979E-03  mag=     0.0000
       N       E                     dE             d eps       ncg     rms          rms(c)
DAV:   1    -0.125549108109E+03    0.12235E-02   -0.41053E+00 14208   0.869E+00    0.343E-01
DAV:   2    -0.125550472508E+03   -0.13644E-02   -0.26205E-02 19632   0.682E-01    0.237E-01
DAV:   3    -0.125550028323E+03    0.44419E-03   -0.14967E-03 20064   0.147E-01    0.510E-02
DAV:   4    -0.125550027900E+03    0.42319E-06   -0.16072E-04 22320   0.514E-02    0.156E-02
DAV:   5    -0.125550026600E+03    0.12995E-05   -0.20262E-05 17136   0.214E-02    0.670E-03
DAV:   6    -0.125550029496E+03   -0.28958E-05   -0.16717E-05 19776   0.205E-02    0.237E-03
DAV:   7    -0.125550025466E+03    0.40298E-05   -0.72346E-06 21168   0.132E-02    0.737E-04
DAV:   8    -0.125550025671E+03   -0.20444E-06   -0.24323E-07 25152   0.238E-03
 127 F= -.12713351E+03 E0= -.12713273E+03  d E =-.533192E-03  mag=    -0.0000
       N       E                     dE             d eps       ncg     rms          rms(c)
DAV:   1    -0.125549957518E+03    0.67948E-04   -0.36780E-01 14208   0.260E+00    0.102E-01
DAV:   2    -0.125550084500E+03   -0.12698E-03   -0.23751E-03 21216   0.205E-01    0.710E-02
DAV:   3    -0.125550047422E+03    0.37078E-04   -0.14112E-04 19008   0.448E-02    0.157E-02
DAV:   4    -0.125550047346E+03    0.75452E-07   -0.16305E-05 16752   0.150E-02    0.477E-03
DAV:   5    -0.125550047354E+03   -0.82355E-08   -0.14145E-06 21888   0.446E-03
 128 F= -.12713369E+03 E0= -.12713291E+03  d E =-.181340E-03  mag=    -0.0000
