    8    8  128    1
  0.4338553E+02  0.5169000E-09  0.5169000E-09  0.1500000E-08  0.5000000E-15
  1.000000000000000E-004
  CAR 
 Lattice                                 
     30    761     24
 
  0.0000000E+00  0.0000000E+00  0.0000000E+00  0.6574622E-03
      1        -19.884770   1.000000
      2        -15.983179   1.000000
      3        -15.983004   1.000000
      4        -13.641826   1.000000
      5        -13.641771   1.000000
      6        -12.573305   1.000000
      7        -11.250068   1.000000
      8         -8.688689   1.000000
      9         -8.456642   1.000000
     10         -6.304363   1.000000
     11         -6.304180   1.000000
     12         -4.480749   1.000000
     13         -4.480661   1.000000
     14         -3.791965   0.999996
     15         -3.791783   0.999996
     16         -1.963915   0.000000
     17         -0.227784   0.000000
     18         -0.227752   0.000000
     19          0.431760   0.000000
     20          0.841337   0.000000
     21          1.844277   0.000000
     22          2.268453   0.000000
     23          4.234145   0.000000
     24          4.857206   0.000000
 
  0.2564103E-01 -0.3809025E-19  0.0000000E+00  0.1314924E-02
      1        -19.882181   1.000000
      2        -15.996360   1.000000
      3        -15.987370   1.000000
      4        -13.645265   1.000000
      5        -13.632199   1.000000
      6        -12.560496   1.000000
      7        -11.234361   1.000000
      8         -8.684775   1.000000
      9         -8.461961   1.000000
     10         -6.316096   1.000000
     11         -6.306687   1.000000
     12         -4.492696   1.000000
     13         -4.482710   1.000000
     14         -3.805537   0.999998
     15         -3.798588   0.999997
     16         -1.987458   0.000000
     17         -0.221981   0.000000
     18         -0.193034   0.000000
     19          0.442475   0.000000
     20          0.846249   0.000000
     21          1.849592   0.000000
     22          2.273389   0.000000
     23          4.238991   0.000000
     24          4.862533   0.000000
 
 -0.1979456E-17  0.2564103E-01  0.0000000E+00  0.1314924E-02
      1        -19.882181   1.000000
      2        -15.996323   1.000000
      3        -15.987407   1.000000
      4        -13.645293   1.000000
      5        -13.632171   1.000000
      6        -12.560496   1.000000
      7        -11.234362   1.000000
      8         -8.684775   1.000000
      9         -8.461961   1.000000
     10         -6.316073   1.000000
     11         -6.306710   1.000000
     12         -4.492666   1.000000
     13         -4.482740   1.000000
     14         -3.805569   0.999998
     15         -3.798556   0.999997
     16         -1.987459   0.000000
     17         -0.221954   0.000000
     18         -0.193061   0.000000
     19          0.442475   0.000000
     20          0.846249   0.000000
     21          1.849592   0.000000
     22          2.273389   0.000000
     23          4.238991   0.000000
     24          4.862533   0.000000
 
 -0.2564103E-01  0.2564103E-01  0.0000000E+00  0.1314924E-02
      1        -19.882181   1.000000
      2        -15.996468   1.000000
      3        -15.987263   1.000000
      4        -13.645246   1.000000
      5        -13.632217   1.000000
      6        -12.560498   1.000000
      7        -11.234361   1.000000
      8         -8.684775   1.000000
      9         -8.461961   1.000000
     10         -6.316219   1.000000
     11         -6.306564   1.000000
     12         -4.492741   1.000000
     13         -4.482665   1.000000
     14         -3.805685   0.999998
     15         -3.798439   0.999997
     16         -1.987460   0.000000
     17         -0.221973   0.000000
     18         -0.193038   0.000000
     19          0.442473   0.000000
     20          0.846249   0.000000
     21          1.849592   0.000000
     22          2.273389   0.000000
     23          4.238991   0.000000
     24          4.862533   0.000000
 
  0.5128205E-01 -0.3972985E-17  0.0000000E+00  0.1314924E-02
      1        -19.874425   1.000000
      2        -16.035332   1.000000
      3        -15.999880   1.000000
      4        -13.656018   1.000000
      5        -13.603684   1.000000
      6        -12.522016   1.000000
      7        -11.187940   1.000000
      8         -8.673030   1.000000
      9         -8.478191   1.000000
     10         -6.351535   1.000000
     11         -6.313544   1.000000
     12         -4.528671   1.000000
     13         -4.488750   1.000000
     14         -3.846445   1.000000
     15         -3.818421   0.999999
     16         -2.051891   0.000000
     17         -0.205002   0.000000
     18         -0.096382   0.000000
     19          0.475553   0.000000
     20          0.860976   0.000000
     21          1.865565   0.000000
     22          2.288195   0.000000
     23          4.253534   0.000000
     24          4.878186   0.000000
 
 -0.3972985E-17  0.5128205E-01  0.0000000E+00  0.1314924E-02
      1        -19.874426   1.000000
      2        -16.035296   1.000000
      3        -15.999916   1.000000
      4        -13.656046   1.000000
      5        -13.603656   1.000000
      6        -12.522015   1.000000
      7        -11.187941   1.000000
      8         -8.673030   1.000000
      9         -8.478191   1.000000
     10         -6.351513   1.000000
     11         -6.313566   1.000000
     12         -4.528641   1.000000
     13         -4.488780   1.000000
     14         -3.846476   1.000000
     15         -3.818389   0.999999
     16         -2.051892   0.000000
     17         -0.204975   0.000000
     18         -0.096407   0.000000
     19          0.475552   0.000000
     20          0.860976   0.000000
     21          1.865565   0.000000
     22          2.288195   0.000000
     23          4.253534   0.000000
     24          4.878186   0.000000
 
 -0.5128205E-01  0.5128205E-01  0.0000000E+00  0.1314924E-02
      1        -19.874425   1.000000
      2        -16.035440   1.000000
      3        -15.999773   1.000000
      4        -13.655996   1.000000
      5        -13.603701   1.000000
      6        -12.522023   1.000000
      7        -11.187937   1.000000
      8         -8.673030   1.000000
      9         -8.478191   1.000000
     10         -6.351659   1.000000
     11         -6.313419   1.000000
     12         -4.528715   1.000000
     13         -4.488705   1.000000
     14         -3.846592   1.000000
     15         -3.818273   0.999999
     16         -2.051898   0.000000
     17         -0.204994   0.000000
     18         -0.096374   0.000000
     19          0.475543   0.000000
     20          0.860976   0.000000
     21          1.865564   0.000000
     22          2.288195   0.000000
     23          4.253534   0.000000
     24          4.878185   0.000000
 
  0.7692308E-01 -0.4011075E-17  0.0000000E+00  0.1314924E-02
      1        -19.861564   1.000000
      2        -16.097464   1.000000
      3        -16.019880   1.000000
      4        -13.674685   1.000000
      5        -13.557092   1.000000
      6        -12.457974   1.000000
      7        -11.112601   1.000000
      8         -8.653478   1.000000
      9         -8.505597   1.000000
     10         -6.409755   1.000000
     11         -6.323865   1.000000
     12         -4.587638   1.000000
     13         -4.498486   1.000000
     14         -3.913885   1.000000
     15         -3.850975   1.000000
     16         -2.143700   0.000000
     17         -0.176919   0.000000
     18          0.043818   0.000000
     19          0.534579   0.000000
     20          0.885503   0.000000
     21          1.892292   0.000000
     22          2.312860   0.000000
     23          4.277767   0.000000
     24          4.903437   0.000000
 
 -0.4011075E-17  0.7692308E-01  0.0000000E+00  0.1314924E-02
      1        -19.861564   1.000000
      2        -16.097429   1.000000
      3        -16.019916   1.000000
      4        -13.674712   1.000000
      5        -13.557064   1.000000
      6        -12.457972   1.000000
      7        -11.112603   1.000000
      8         -8.653478   1.000000
      9         -8.505597   1.000000
     10         -6.409733   1.000000
     11         -6.323886   1.000000
     12         -4.587609   1.000000
     13         -4.498516   1.000000
     14         -3.913916   1.000000
     15         -3.850944   1.000000
     16         -2.143702   0.000000
     17         -0.176892   0.000000
     18          0.043796   0.000000
     19          0.534578   0.000000
     20          0.885503   0.000000
     21          1.892292   0.000000
     22          2.312860   0.000000
     23          4.277767   0.000000
     24          4.903438   0.000000
 
 -0.7692308E-01  0.7692308E-01  0.0000000E+00  0.1314924E-02
      1        -19.861563   1.000000
      2        -16.097571   1.000000
      3        -16.019775   1.000000
      4        -13.674660   1.000000
      5        -13.557106   1.000000
      6        -12.457988   1.000000
      7        -11.112597   1.000000
      8         -8.653477   1.000000
      9         -8.505598   1.000000
     10         -6.409880   1.000000
     11         -6.323739   1.000000
     12         -4.587681   1.000000
     13         -4.498441   1.000000
     14         -3.914030   1.000000
     15         -3.850829   1.000000
     16         -2.143713   0.000000
     17         -0.176911   0.000000
     18          0.043847   0.000000
     19          0.534555   0.000000
     20          0.885503   0.000000
     21          1.892291   0.000000
     22          2.312859   0.000000
     23          4.277767   0.000000
     24          4.903434   0.000000
 
  0.1025641E+00 -0.7945970E-17  0.0000000E+00  0.1314924E-02
      1        -19.843686   1.000000
      2        -16.179191   1.000000
      3        -16.046250   1.000000
      4        -13.701415   1.000000
      5        -13.493683   1.000000
      6        -12.369314   1.000000
      7        -11.010899   1.000000
      8         -8.626167   1.000000
      9         -8.544673   1.000000
     10         -6.489592   1.000000
     11         -6.336083   1.000000
     12         -4.668149   1.000000
     13         -4.511605   1.000000
     14         -4.007011   1.000000
     15         -3.895663   1.000000
     16         -2.249385   0.000000
     17         -0.138405   0.000000
     18          0.203861   0.000000
     19          0.627932   0.000000
     20          0.919804   0.000000
     21          1.929968   0.000000
     22          2.347369   0.000000
     23          4.311681   0.000000
     24          4.937446   0.000000
 
 -0.7945970E-17  0.1025641E+00  0.0000000E+00  0.1314924E-02
      1        -19.843687   1.000000
      2        -16.179156   1.000000
      3        -16.046284   1.000000
      4        -13.701441   1.000000
      5        -13.493657   1.000000
      6        -12.369311   1.000000
      7        -11.010902   1.000000
      8         -8.626167   1.000000
      9         -8.544674   1.000000
     10         -6.489570   1.000000
     11         -6.336102   1.000000
     12         -4.668122   1.000000
     13         -4.511634   1.000000
     14         -4.007041   1.000000
     15         -3.895632   1.000000
     16         -2.249388   0.000000
     17         -0.138378   0.000000
     18          0.203844   0.000000
     19          0.627928   0.000000
     20          0.919804   0.000000
     21          1.929968   0.000000
     22          2.347369   0.000000
     23          4.311681   0.000000
     24          4.937447   0.000000
 
 -0.1025641E+00  0.1025641E+00  0.0000000E+00  0.1314924E-02
      1        -19.843685   1.000000
      2        -16.179296   1.000000
      3        -16.046146   1.000000
      4        -13.701386   1.000000
      5        -13.493695   1.000000
      6        -12.369336   1.000000
      7        -11.010891   1.000000
      8         -8.626167   1.000000
      9         -8.544675   1.000000
     10         -6.489717   1.000000
     11         -6.335956   1.000000
     12         -4.668190   1.000000
     13         -4.511560   1.000000
     14         -4.007153   1.000000
     15         -3.895520   1.000000
     16         -2.249404   0.000000
     17         -0.138396   0.000000
     18          0.203917   0.000000
     19          0.627887   0.000000
     20          0.919804   0.000000
     21          1.929965   0.000000
     22          2.347369   0.000000
     23          4.311681   0.000000
     24          4.937443   0.000000
 
  0.1282051E+00 -0.7984061E-17  0.0000000E+00  0.1314924E-02
      1        -19.820948   1.000000
      2        -16.276529   1.000000
      3        -16.077652   1.000000
      4        -13.735444   1.000000
      5        -13.415015   1.000000
      6        -12.258072   1.000000
      7        -10.885653   1.000000
      8         -8.596082   1.000000
      9         -8.591201   1.000000
     10         -6.589694   1.000000
     11         -6.348403   1.000000
     12         -4.768177   1.000000
     13         -4.527685   1.000000
     14         -4.124398   1.000000
     15         -3.951556   1.000000
     16         -2.359007   0.000000
     17         -0.090810   0.000000
     18          0.357756   0.000000
     19          0.768423   0.000000
     20          0.963853   0.000000
     21          1.978942   0.000000
     22          2.391708   0.000000
     23          4.355242   0.000000
     24          4.979515   0.000000
 
 -0.2185971E-18  0.1282051E+00  0.0000000E+00  0.1314924E-02
      1        -19.820949   1.000000
      2        -16.276495   1.000000
      3        -16.077686   1.000000
      4        -13.735470   1.000000
      5        -13.414990   1.000000
      6        -12.258067   1.000000
      7        -10.885658   1.000000
      8         -8.596084   1.000000
      9         -8.591201   1.000000
     10         -6.589673   1.000000
     11         -6.348421   1.000000
     12         -4.768150   1.000000
     13         -4.527714   1.000000
     14         -4.124427   1.000000
     15         -3.951526   1.000000
     16         -2.359010   0.000000
     17         -0.090783   0.000000
     18          0.357745   0.000000
     19          0.768414   0.000000
     20          0.963853   0.000000
     21          1.978942   0.000000
     22          2.391708   0.000000
     23          4.355242   0.000000
     24          4.979516   0.000000
 
 -0.1282051E+00  0.1282051E+00  0.0000000E+00  0.1314924E-02
      1        -19.820947   1.000000
      2        -16.276633   1.000000
      3        -16.077551   1.000000
      4        -13.735412   1.000000
      5        -13.415024   1.000000
      6        -12.258101   1.000000
      7        -10.885642   1.000000
      8         -8.596086   1.000000
      9         -8.591200   1.000000
     10         -6.589820   1.000000
     11         -6.348275   1.000000
     12         -4.768216   1.000000
     13         -4.527641   1.000000
     14         -4.124536   1.000000
     15         -3.951417   1.000000
     16         -2.359031   0.000000
     17         -0.090800   0.000000
     18          0.357838   0.000000
     19          0.768358   0.000000
     20          0.963853   0.000000
     21          1.978938   0.000000
     22          2.391708   0.000000
     23          4.355242   0.000000
     24          4.979511   0.000000
 
  0.1538462E+00 -0.3356221E-16  0.0000000E+00  0.1314924E-02
      1        -19.793534   1.000000
      2        -16.385555   1.000000
      3        -16.112678   1.000000
      4        -13.775235   1.000000
      5        -13.322764   1.000000
      6        -12.127081   1.000000
      7        -10.739634   1.000000
      8         -8.660211   1.000000
      9         -8.548609   1.000000
     10         -6.708210   1.000000
     11         -6.358820   1.000000
     12         -4.885295   1.000000
     13         -4.546158   1.000000
     14         -4.264514   1.000000
     15         -4.017421   1.000000
     16         -2.466251   0.000000
     17         -0.034695   0.000000
     18          0.490720   0.000000
     19          0.960912   0.000000
     20          1.017615   0.000000
     21          2.039871   0.000000
     22          2.445857   0.000000
     23          4.408443   0.000000
     24          5.029000   0.000000
 
 -0.1803128E-16  0.1538462E+00  0.0000000E+00  0.1314924E-02
      1        -19.793535   1.000000
      2        -16.385522   1.000000
      3        -16.112711   1.000000
      4        -13.775260   1.000000
      5        -13.322739   1.000000
      6        -12.127075   1.000000
      7        -10.739640   1.000000
      8         -8.660214   1.000000
      9         -8.548610   1.000000
     10         -6.708189   1.000000
     11         -6.358837   1.000000
     12         -4.885269   1.000000
     13         -4.546187   1.000000
     14         -4.264542   1.000000
     15         -4.017391   1.000000
     16         -2.466254   0.000000
     17         -0.034669   0.000000
     18          0.490714   0.000000
     19          0.960899   0.000000
     20          1.017615   0.000000
     21          2.039871   0.000000
     22          2.445857   0.000000
     23          4.408443   0.000000
     24          5.029001   0.000000
 
 -0.1538462E+00  0.1538462E+00  0.0000000E+00  0.1314924E-02
      1        -19.793532   1.000000
      2        -16.385658   1.000000
      3        -16.112580   1.000000
      4        -13.775201   1.000000
      5        -13.322769   1.000000
      6        -12.127117   1.000000
      7        -10.739620   1.000000
      8         -8.660217   1.000000
      9         -8.548608   1.000000
     10         -6.708337   1.000000
     11         -6.358690   1.000000
     12         -4.885332   1.000000
     13         -4.546114   1.000000
     14         -4.264648   1.000000
     15         -4.017286   1.000000
     16         -2.466281   0.000000
     17         -0.034685   0.000000
     18          0.490812   0.000000
     19          0.960843   0.000000
     20          1.017615   0.000000
     21          2.039864   0.000000
     22          2.445856   0.000000
     23          4.408443   0.000000
     24          5.028998   0.000000
 
  0.1794872E+00  0.1745167E-16  0.0000000E+00  0.1314924E-02
      1        -19.761717   1.000000
      2        -16.502678   1.000000
      3        -16.149963   1.000000
      4        -13.818889   1.000000
      5        -13.218666   1.000000
      6        -11.979456   1.000000
      7        -10.575426   1.000000
      8         -8.737259   1.000000
      9         -8.498633   1.000000
     10         -6.843174   1.000000
     11         -6.365483   1.000000
     12         -5.016767   1.000000
     13         -4.566446   1.000000
     14         -4.425556   1.000000
     15         -4.092000   1.000000
     16         -2.567650   0.000000
     17          0.028433   0.000000
     18          0.606877   0.000000
     19          1.081059   0.000000
     20          1.192480   0.000000
     21          2.113997   0.000000
     22          2.509799   0.000000
     23          4.471198   0.000000
     24          5.085179   0.000000
 
  0.1920742E-17  0.1794872E+00  0.0000000E+00  0.1314924E-02
      1        -19.761718   1.000000
      2        -16.502646   1.000000
      3        -16.149994   1.000000
      4        -13.818912   1.000000
      5        -13.218643   1.000000
      6        -11.979450   1.000000
      7        -10.575434   1.000000
      8         -8.737263   1.000000
      9         -8.498633   1.000000
     10         -6.843153   1.000000
     11         -6.365498   1.000000
     12         -5.016742   1.000000
     13         -4.566475   1.000000
     14         -4.425583   1.000000
     15         -4.091972   1.000000
     16         -2.567653   0.000000
     17          0.028459   0.000000
     18          0.606874   0.000000
     19          1.081059   0.000000
     20          1.192465   0.000000
     21          2.113998   0.000000
     22          2.509799   0.000000
     23          4.471199   0.000000
     24          5.085179   0.000000
 
 -0.1794872E+00  0.1794872E+00  0.0000000E+00  0.1314924E-02
      1        -19.761714   1.000000
      2        -16.502780   1.000000
      3        -16.149866   1.000000
      4        -13.818853   1.000000
      5        -13.218668   1.000000
      6        -11.979497   1.000000
      7        -10.575409   1.000000
      8         -8.737266   1.000000
      9         -8.498631   1.000000
     10         -6.843302   1.000000
     11         -6.365351   1.000000
     12         -5.016802   1.000000
     13         -4.566403   1.000000
     14         -4.425685   1.000000
     15         -4.091870   1.000000
     16         -2.567683   0.000000
     17          0.028444   0.000000
     18          0.606969   0.000000
     19          1.081059   0.000000
     20          1.192419   0.000000
     21          2.113987   0.000000
     22          2.509798   0.000000
     23          4.471199   0.000000
     24          5.085178   0.000000
 
  0.2051282E+00 -0.1589194E-16  0.0000000E+00  0.1314924E-02
      1        -19.725826   1.000000
      2        -16.624721   1.000000
      3        -16.188251   1.000000
      4        -13.864522   1.000000
      5        -13.104468   1.000000
      6        -11.818164   1.000000
      7        -10.395379   1.000000
      8         -8.827009   1.000000
      9         -8.441389   1.000000
     10         -6.992441   1.000000
     11         -6.366786   1.000000
     12         -5.159623   1.000000
     13         -4.605749   1.000000
     14         -4.587943   1.000000
     15         -4.173958   1.000000
     16         -2.661371   0.000000
     17          0.097130   0.000000
     18          0.715569   0.000000
     19          1.154152   0.000000
     20          1.445661   0.000000
     21          2.203836   0.000000
     22          2.583517   0.000000
     23          4.543443   0.000000
     24          5.146877   0.000000
 
 -0.1589194E-16  0.2051282E+00  0.0000000E+00  0.1314924E-02
      1        -19.725827   1.000000
      2        -16.624690   1.000000
      3        -16.188281   1.000000
      4        -13.864543   1.000000
      5        -13.104446   1.000000
      6        -11.818157   1.000000
      7        -10.395388   1.000000
      8         -8.827015   1.000000
      9         -8.441389   1.000000
     10         -6.992421   1.000000
     11         -6.366800   1.000000
     12         -5.159600   1.000000
     13         -4.605775   1.000000
     14         -4.587971   1.000000
     15         -4.173931   1.000000
     16         -2.661374   0.000000
     17          0.097156   0.000000
     18          0.715568   0.000000
     19          1.154152   0.000000
     20          1.445645   0.000000
     21          2.203837   0.000000
     22          2.583517   0.000000
     23          4.543443   0.000000
     24          5.146876   0.000000
 
 -0.2051282E+00  0.2051282E+00  0.0000000E+00  0.1314924E-02
      1        -19.725821   1.000000
      2        -16.624823   1.000000
      3        -16.188157   1.000000
      4        -13.864485   1.000000
      5        -13.104467   1.000000
      6        -11.818209   1.000000
      7        -10.395358   1.000000
      8         -8.827018   1.000000
      9         -8.441386   1.000000
     10         -6.992572   1.000000
     11         -6.366653   1.000000
     12         -5.159658   1.000000
     13         -4.605873   1.000000
     14         -4.587900   1.000000
     15         -4.173833   1.000000
     16         -2.661408   0.000000
     17          0.097141   0.000000
     18          0.715657   0.000000
     19          1.154152   0.000000
     20          1.445613   0.000000
     21          2.203819   0.000000
     22          2.583517   0.000000
     23          4.543444   0.000000
     24          5.146878   0.000000
 
  0.2307692E+00 -0.2204236E-16  0.0000000E+00  0.1314924E-02
      1        -19.686299   1.000000
      2        -16.748923   1.000000
      3        -16.226437   1.000000
      4        -13.910460   1.000000
      5        -12.981897   1.000000
      6        -11.645843   1.000000
      7        -10.201738   1.000000
      8         -8.928766   1.000000
      9         -8.377162   1.000000
     10         -7.153729   1.000000
     11         -6.361682   1.000000
     12         -5.311052   1.000000
     13         -4.803006   1.000000
     14         -4.610045   1.000000
     15         -4.261747   1.000000
     16         -2.746682   0.000000
     17          0.169741   0.000000
     18          0.821716   0.000000
     19          1.236866   0.000000
     20          1.704859   0.000000
     21          2.314602   0.000000
     22          2.666998   0.000000
     23          4.624995   0.000000
     24          5.139398   0.000000
 
 -0.2204236E-16  0.2307692E+00  0.0000000E+00  0.1314924E-02
      1        -19.686301   1.000000
      2        -16.748893   1.000000
      3        -16.226466   1.000000
      4        -13.910481   1.000000
      5        -12.981875   1.000000
      6        -11.645834   1.000000
      7        -10.201748   1.000000
      8         -8.928773   1.000000
      9         -8.377163   1.000000
     10         -7.153709   1.000000
     11         -6.361694   1.000000
     12         -5.311030   1.000000
     13         -4.803030   1.000000
     14         -4.610073   1.000000
     15         -4.261720   1.000000
     16         -2.746684   0.000000
     17          0.169767   0.000000
     18          0.821717   0.000000
     19          1.236866   0.000000
     20          1.704843   0.000000
     21          2.314603   0.000000
     22          2.666998   0.000000
     23          4.624996   0.000000
     24          5.139396   0.000000
 
 -0.2307692E+00  0.2307692E+00  0.0000000E+00  0.1314924E-02
      1        -19.686293   1.000000
      2        -16.749024   1.000000
      3        -16.226345   1.000000
      4        -13.910423   1.000000
      5        -12.981892   1.000000
      6        -11.645890   1.000000
      7        -10.201713   1.000000
      8         -8.928777   1.000000
      9         -8.377158   1.000000
     10         -7.153863   1.000000
     11         -6.361546   1.000000
     12         -5.311086   1.000000
     13         -4.803125   1.000000
     14         -4.610002   1.000000
     15         -4.261628   1.000000
     16         -2.746721   0.000000
     17          0.169754   0.000000
     18          0.821802   0.000000
     19          1.236865   0.000000
     20          1.704827   0.000000
     21          2.314575   0.000000
     22          2.666997   0.000000
     23          4.624996   0.000000
     24          5.139397   0.000000
 
  0.2564103E+00 -0.1209946E-16  0.0000000E+00  0.1314924E-02
      1        -19.643681   1.000000
      2        -16.872833   1.000000
      3        -16.263566   1.000000
      4        -13.955303   1.000000
      5        -12.852710   1.000000
      6        -11.464696   1.000000
      7         -9.996716   1.000000
      8         -9.041134   1.000000
      9         -8.306253   1.000000
     10         -7.324521   1.000000
     11         -6.349510   1.000000
     12         -5.468183   1.000000
     13         -5.015347   1.000000
     14         -4.632124   1.000000
     15         -4.353736   1.000000
     16         -2.823397   0.000000
     17          0.244662   0.000000
     18          0.926825   0.000000
     19          1.329173   0.000000
     20          1.953713   0.000000
     21          2.456728   0.000000
     22          2.760228   0.000000
     23          4.715487   0.000000
     24          4.868878   0.000000
 
 -0.1209946E-16  0.2564103E+00  0.0000000E+00  0.1314924E-02
      1        -19.643683   1.000000
      2        -16.872803   1.000000
      3        -16.263594   1.000000
      4        -13.955323   1.000000
      5        -12.852689   1.000000
      6        -11.464687   1.000000
      7         -9.996728   1.000000
      8         -9.041141   1.000000
      9         -8.306254   1.000000
     10         -7.324502   1.000000
     11         -6.349521   1.000000
     12         -5.468162   1.000000
     13         -5.015370   1.000000
     14         -4.632151   1.000000
     15         -4.353710   1.000000
     16         -2.823399   0.000000
     17          0.244688   0.000000
     18          0.926826   0.000000
     19          1.329173   0.000000
     20          1.953698   0.000000
     21          2.456729   0.000000
     22          2.760229   0.000000
     23          4.715488   0.000000
     24          4.868879   0.000000
 
 -0.2564103E+00  0.2564103E+00  0.0000000E+00  0.1314924E-02
      1        -19.643673   1.000000
      2        -16.872934   1.000000
      3        -16.263476   1.000000
      4        -13.955265   1.000000
      5        -12.852702   1.000000
      6        -11.464745   1.000000
      7         -9.996687   1.000000
      8         -9.041146   1.000000
      9         -8.306248   1.000000
     10         -7.324660   1.000000
     11         -6.349372   1.000000
     12         -5.468216   1.000000
     13         -5.015461   1.000000
     14         -4.632081   1.000000
     15         -4.353622   1.000000
     16         -2.823439   0.000000
     17          0.244676   0.000000
     18          0.926909   0.000000
     19          1.329173   0.000000
     20          1.953701   0.000000
     21          2.456686   0.000000
     22          2.760228   0.000000
     23          4.715490   0.000000
     24          4.868880   0.000000
 
  0.2820513E+00 -0.4372089E-17  0.0000000E+00  0.1314924E-02
      1        -19.598683   1.000000
      2        -16.994241   1.000000
      3        -16.298838   1.000000
      4        -13.997940   1.000000
      5        -12.718770   1.000000
      6        -11.276585   1.000000
      7         -9.782873   1.000000