Lattice                                 
           1
     4.476485    2.584500    0.000000
    -4.476485    2.584500    0.000000
     0.000000    0.000000   15.000000
   B    C 
     2     6
Direct configuration=     1
   0.33835568  0.66919338  0.25000000
   0.67168550  0.33578412  0.25000000
   0.16393418  0.32096121  0.25000000
   0.32344383  0.16194918  0.25000000
   0.16445142  0.84350783  0.25000000
   0.84555675  0.16147694  0.25000000
   0.68650730  0.84304996  0.25000000
   0.84606136  0.68407339  0.25000000
Direct configuration=     2
   0.33826096  0.66913789  0.25000000
   0.67167031  0.33589161  0.25000000
   0.16281401  0.31804959  0.25000000
   0.32052416  0.16045112  0.25000000
   0.16295924  0.84489274  0.25000000
   0.84701509  0.16013921  0.25000000
   0.68957099  0.84455666  0.25000000
   0.84718123  0.68687719  0.25000000
Direct configuration=     3
   0.33832471  0.66917523  0.25000000
   0.67168053  0.33581927  0.25000000
   0.16356789  0.32000913  0.25000000
   0.32248911  0.16145932  0.25000000
   0.16396348  0.84396069  0.25000000
   0.84603361  0.16103951  0.25000000
   0.68750911  0.84354264  0.25000000
   0.84642755  0.68499021  0.25000000
Direct configuration=     4
   0.33832472  0.66917525  0.25000000
   0.67168053  0.33581925  0.25000000
   0.16356812  0.32000972  0.25000000
   0.32248971  0.16145963  0.25000000
   0.16396379  0.84396040  0.25000000
   0.84603332  0.16103978  0.25000000
   0.68750848  0.84354233  0.25000000
   0.84642732  0.68498964  0.25000000
Direct configuration=     5
   0.33835319  0.66917134  0.25000000
   0.67163668  0.33583227  0.25000000
   0.16358212  0.31999688  0.25000000
   0.32253778  0.16135880  0.25000000
   0.16380860  0.84385578  0.25000000
   0.84619374  0.16114554  0.25000000
   0.68746199  0.84363687  0.25000000
   0.84642191  0.68499851  0.25000000
Direct configuration=     6
   0.33834035  0.66917310  0.25000000
   0.67165646  0.33582639  0.25000000
   0.16357580  0.32000268  0.25000000
   0.32251609  0.16140429  0.25000000
   0.16387861  0.84390298  0.25000000
   0.84612137  0.16109783  0.25000000
   0.68748296  0.84359422  0.25000000
   0.84642435  0.68499451  0.25000000
Direct configuration=     7
   0.33833494  0.66916867  0.25000000
   0.67165611  0.33583401  0.25000000
   0.16365873  0.32000114  0.25000000
   0.32250891  0.16133294  0.25000000
   0.16382055  0.84383228  0.25000000
   0.84618099  0.16116847  0.25000000
   0.68749101  0.84366326  0.25000000
   0.84634477  0.68499524  0.25000000
Direct configuration=     8
   0.33832881  0.66916367  0.25000000
   0.67165571  0.33584263  0.25000000
   0.16375256  0.31999940  0.25000000
   0.32250079  0.16125220  0.25000000
   0.16375485  0.84375227  0.25000000
   0.84624845  0.16124840  0.25000000
   0.68750012  0.84374138  0.25000000
   0.84625471  0.68499606  0.25000000
Direct configuration=     9
   0.33833420  0.66916509  0.25000000
   0.67166631  0.33583189  0.25000000
   0.16374614  0.31999989  0.25000000
   0.32249988  0.16125037  0.25000000
   0.16375436  0.84374891  0.25000000
   0.84624411  0.16125085  0.25000000
   0.68749962  0.84375001  0.25000000
   0.84625138  0.68499898  0.25000000
