   8   8   0   0
  0.4338553E+02  0.5169000E-09  0.5169000E-09  0.1500000E-08  0.5000000E-15
  1.000000000000000E-004
  CAR 
 BC3                                     
      9.52933523    -21.28554757  301     -3.47688948      1.00000000
    -21.286  0.0000E+00  0.0000E+00
    -21.183  0.0000E+00  0.0000E+00
    -21.080  0.0000E+00  0.0000E+00
    -20.977  0.0000E+00  0.0000E+00
    -20.875  0.0000E+00  0.0000E+00
    -20.772  0.0000E+00  0.0000E+00
    -20.669  0.0000E+00  0.0000E+00
    -20.567  0.0000E+00  0.0000E+00
    -20.464  0.1028E-18  0.1056E-19
    -20.361  0.1488E-13  0.1528E-14
    -20.258  0.1444E-09  0.1483E-10
    -20.156  0.1913E-06  0.1967E-07
    -20.053  0.3712E-04  0.3832E-05
    -19.950  0.1199E-02  0.1270E-03
    -19.848  0.8107E-02  0.9597E-03
    -19.745  0.1714E-01  0.2720E-02
    -19.642  0.2080E-01  0.4856E-02
    -19.539  0.2343E-01  0.7263E-02
    -19.437  0.2879E-01  0.1022E-01
    -19.334  0.3994E-01  0.1432E-01
    -19.231  0.3925E-01  0.1835E-01
    -19.129  0.1456E-01  0.1985E-01
    -19.026  0.1436E-02  0.2000E-01
    -18.923  0.2905E-04  0.2000E-01
    -18.820  0.9788E-07  0.2000E-01
    -18.718  0.4825E-10  0.2000E-01
    -18.615  0.3241E-14  0.2000E-01
    -18.512  0.0000E+00  0.2000E-01
    -18.409  0.0000E+00  0.2000E-01
    -18.307  0.0000E+00  0.2000E-01
    -18.204  0.7711E-19  0.2000E-01
    -18.101  0.8435E-14  0.2000E-01
    -17.999  0.9833E-10  0.2000E-01
    -17.896  0.1559E-06  0.2000E-01
    -17.793  0.3592E-04  0.2000E-01
    -17.690  0.1360E-02  0.2014E-01
    -17.588  0.1059E-01  0.2123E-01
    -17.485  0.2528E-01  0.2383E-01
    -17.382  0.3226E-01  0.2714E-01
    -17.280  0.2729E-01  0.2994E-01
    -17.177  0.1970E-01  0.3197E-01
    -17.074  0.1846E-01  0.3386E-01
    -16.971  0.1912E-01  0.3583E-01
    -16.869  0.2010E-01  0.3789E-01
    -16.766  0.2148E-01  0.4010E-01
    -16.663  0.2361E-01  0.4252E-01
    -16.561  0.2775E-01  0.4537E-01
    -16.458  0.3445E-01  0.4891E-01
    -16.355  0.3395E-01  0.5240E-01
    -16.252  0.2597E-01  0.5507E-01
    -16.150  0.2055E-01  0.5718E-01
    -16.047  0.1643E-01  0.5887E-01
    -15.944  0.9085E-02  0.5980E-01
    -15.842  0.1856E-02  0.5999E-01
    -15.739  0.8739E-04  0.6000E-01
    -15.636  0.7220E-06  0.6000E-01
    -15.533  0.8993E-09  0.6000E-01
    -15.431  0.1557E-12  0.6000E-01
    -15.328  0.3624E-17  0.6000E-01
    -15.225  0.0000E+00  0.6000E-01
    -15.123  0.0000E+00  0.6000E-01
    -15.020  0.0000E+00  0.6000E-01
    -14.917  0.0000E+00  0.6000E-01
    -14.814  0.0000E+00  0.6000E-01
    -14.712  0.1069E-15  0.6000E-01
    -14.609  0.2610E-11  0.6000E-01
    -14.506  0.8633E-08  0.6000E-01
    -14.404  0.4082E-05  0.6000E-01
    -14.301  0.3019E-03  0.6003E-01
    -14.198  0.4131E-02  0.6046E-01
    -14.095  0.1428E-01  0.6192E-01
    -13.993  0.2102E-01  0.6408E-01
    -13.890  0.2431E-01  0.6658E-01
    -13.787  0.3002E-01  0.6966E-01
    -13.685  0.3517E-01  0.7328E-01
    -13.582  0.2775E-01  0.7613E-01
    -13.479  0.1820E-01  0.7799E-01
    -13.376  0.1570E-01  0.7961E-01
    -13.274  0.1446E-01  0.8109E-01
    -13.171  0.1379E-01  0.8251E-01
    -13.068  0.1329E-01  0.8387E-01
    -12.966  0.1285E-01  0.8519E-01
    -12.863  0.1259E-01  0.8649E-01
    -12.760  0.1453E-01  0.8798E-01
    -12.657  0.1852E-01  0.8988E-01
    -12.555  0.1993E-01  0.9193E-01
    -12.452  0.1897E-01  0.9388E-01
    -12.349  0.1724E-01  0.9565E-01
    -12.247  0.1629E-01  0.9732E-01
    -12.144  0.1501E-01  0.9886E-01
    -12.041  0.1426E-01  0.1003E+00
    -11.938  0.1316E-01  0.1017E+00
    -11.836  0.1006E-01  0.1027E+00
    -11.733  0.5816E-02  0.1033E+00
    -11.630  0.4700E-02  0.1038E+00
    -11.528  0.4207E-02  0.1042E+00
    -11.425  0.5297E-02  0.1048E+00
    -11.322  0.4278E-02  0.1052E+00
    -11.219  0.6860E-02  0.1059E+00
    -11.117  0.7601E-02  0.1067E+00
    -11.014  0.8249E-02  0.1075E+00
    -10.911  0.1089E-01  0.1087E+00
    -10.808  0.1176E-01  0.1099E+00
    -10.706  0.1628E-01  0.1115E+00
    -10.603  0.1636E-01  0.1132E+00
    -10.500  0.1705E-01  0.1150E+00
    -10.398  0.2045E-01  0.1171E+00
    -10.295  0.2170E-01  0.1193E+00
    -10.192  0.2263E-01  0.1216E+00
    -10.089  0.1720E-01  0.1234E+00
     -9.987  0.1274E-01  0.1247E+00
     -9.884  0.1680E-01  0.1264E+00
     -9.781  0.2638E-01  0.1291E+00
     -9.679  0.2673E-01  0.1319E+00
     -9.576  0.2227E-01  0.1342E+00
     -9.473  0.2078E-01  0.1363E+00
     -9.370  0.1865E-01  0.1382E+00
     -9.268  0.1851E-01  0.1401E+00
     -9.165  0.2003E-01  0.1422E+00
     -9.062  0.2170E-01  0.1444E+00
     -8.960  0.2401E-01  0.1469E+00
     -8.857  0.2699E-01  0.1496E+00
     -8.754  0.2405E-01  0.1521E+00
     -8.651  0.2703E-01  0.1549E+00
     -8.549  0.2978E-01  0.1580E+00
     -8.446  0.2821E-01  0.1608E+00
     -8.343  0.2332E-01  0.1632E+00
     -8.241  0.2059E-01  0.1654E+00
     -8.138  0.1995E-01  0.1674E+00
     -8.035  0.2480E-01  0.1700E+00
     -7.932  0.3143E-01  0.1732E+00
     -7.830  0.4020E-01  0.1773E+00
     -7.727  0.4380E-01  0.1818E+00
     -7.624  0.4366E-01  0.1863E+00
     -7.522  0.3876E-01  0.1903E+00
     -7.419  0.2595E-01  0.1929E+00
     -7.316  0.1731E-01  0.1947E+00
     -7.213  0.2006E-01  0.1968E+00
     -7.111  0.2085E-01  0.1989E+00
     -7.008  0.1759E-01  0.2007E+00
     -6.905  0.1611E-01  0.2024E+00
     -6.803  0.1629E-01  0.2041E+00
     -6.700  0.1855E-01  0.2060E+00
     -6.597  0.2684E-01  0.2087E+00
     -6.494  0.4220E-01  0.2131E+00
     -6.392  0.6796E-01  0.2200E+00
     -6.289  0.7952E-01  0.2282E+00
     -6.186  0.5796E-01  0.2342E+00
     -6.084  0.3949E-01  0.2382E+00
     -5.981  0.2694E-01  0.2410E+00
     -5.878  0.2334E-01  0.2434E+00
     -5.775  0.2359E-01  0.2458E+00
     -5.673  0.2444E-01  0.2483E+00
     -5.570  0.2515E-01  0.2509E+00
     -5.467  0.2659E-01  0.2536E+00
     -5.365  0.2770E-01  0.2565E+00
     -5.262  0.2986E-01  0.2595E+00
     -5.159  0.3245E-01  0.2629E+00
     -5.056  0.3715E-01  0.2667E+00
     -4.954  0.4180E-01  0.2710E+00
     -4.851  0.4343E-01  0.2754E+00
     -4.748  0.4744E-01  0.2803E+00
     -4.646  0.4608E-01  0.2850E+00
     -4.543  0.3961E-01  0.2891E+00
     -4.440  0.2796E-01  0.2920E+00
     -4.337  0.1611E-01  0.2936E+00
     -4.235  0.1267E-01  0.2949E+00
     -4.132  0.1206E-01  0.2962E+00
     -4.029  0.1165E-01  0.2974E+00
     -3.926  0.1116E-01  0.2985E+00
     -3.824  0.9432E-02  0.2995E+00
     -3.721  0.4320E-02  0.2999E+00
     -3.618  0.5958E-03  0.3000E+00
     -3.516  0.1688E-04  0.3000E+00
     -3.413  0.4338E-06  0.3000E+00
     -3.310  0.5029E-04  0.3000E+00
     -3.207  0.1265E-02  0.3001E+00
     -3.105  0.7020E-02  0.3009E+00
     -3.002  0.1333E-01  0.3022E+00
     -2.899  0.1594E-01  0.3039E+00
     -2.797  0.1868E-01  0.3058E+00
     -2.694  0.2269E-01  0.3081E+00
     -2.591  0.2754E-01  0.3109E+00
     -2.488  0.2200E-01  0.3132E+00
     -2.386  0.1652E-01  0.3149E+00
     -2.283  0.1216E-01  0.3161E+00
     -2.180  0.1031E-01  0.3172E+00
     -2.078  0.8222E-02  0.3180E+00
     -1.975  0.6440E-02  0.3187E+00
     -1.872  0.4467E-02  0.3192E+00
     -1.769  0.2920E-02  0.3195E+00
     -1.667  0.2361E-02  0.3197E+00
     -1.564  0.1458E-02  0.3199E+00
     -1.461  0.9884E-03  0.3200E+00
     -1.359  0.3888E-03  0.3200E+00
     -1.256  0.5275E-03  0.3201E+00
     -1.153  0.1113E-02  0.3202E+00
     -1.050  0.1668E-02  0.3203E+00
     -0.948  0.2621E-02  0.3206E+00
     -0.845  0.3009E-02  0.3209E+00
     -0.742  0.4342E-02  0.3214E+00
     -0.640  0.4720E-02  0.3219E+00
     -0.537  0.6308E-02  0.3225E+00
     -0.434  0.7419E-02  0.3233E+00
     -0.331  0.9343E-02  0.3242E+00
     -0.229  0.1606E-01  0.3259E+00
     -0.126  0.2683E-01  0.3286E+00
     -0.023  0.3035E-01  0.3317E+00
      0.079  0.2081E-01  0.3339E+00
      0.182  0.1773E-01  0.3357E+00
      0.285  0.1416E-01  0.3372E+00
      0.388  0.1381E-01  0.3386E+00
      0.490  0.1456E-01  0.3401E+00
      0.593  0.1484E-01  0.3416E+00
      0.696  0.1399E-01  0.3430E+00
      0.798  0.1098E-01  0.3442E+00
      0.901  0.1404E-01  0.3456E+00
      1.004  0.1768E-01  0.3474E+00
      1.107  0.1870E-01  0.3493E+00
      1.209  0.1945E-01  0.3513E+00
      1.312  0.2023E-01  0.3534E+00
      1.415  0.2094E-01  0.3556E+00
      1.517  0.2279E-01  0.3579E+00
      1.620  0.2445E-01  0.3604E+00
      1.723  0.2355E-01  0.3628E+00
      1.826  0.2387E-01  0.3653E+00
      1.928  0.2844E-01  0.3682E+00
      2.031  0.2923E-01  0.3712E+00
      2.134  0.3046E-01  0.3743E+00
      2.236  0.3235E-01  0.3777E+00
      2.339  0.3563E-01  0.3813E+00
      2.442  0.3919E-01  0.3854E+00
      2.545  0.3919E-01  0.3894E+00
      2.647  0.3739E-01  0.3932E+00
      2.750  0.3966E-01  0.3973E+00
      2.853  0.3796E-01  0.4012E+00
      2.955  0.3770E-01  0.4051E+00
      3.058  0.3907E-01  0.4091E+00
      3.161  0.3732E-01  0.4129E+00
      3.264  0.3829E-01  0.4168E+00
      3.366  0.3807E-01  0.4208E+00
      3.469  0.3758E-01  0.4246E+00
      3.572  0.3863E-01  0.4286E+00
      3.675  0.3682E-01  0.4324E+00
      3.777  0.3875E-01  0.4363E+00
      3.880  0.3893E-01  0.4403E+00
      3.983  0.3986E-01  0.4444E+00
      4.085  0.3966E-01  0.4485E+00
      4.188  0.3269E-01  0.4519E+00
      4.291  0.3181E-01  0.4551E+00
      4.394  0.4448E-01  0.4597E+00
      4.496  0.4919E-01  0.4648E+00
      4.599  0.4618E-01  0.4695E+00
      4.702  0.5044E-01  0.4747E+00
      4.804  0.4826E-01  0.4796E+00
      4.907  0.5398E-01  0.4852E+00
      5.010  0.6111E-01  0.4915E+00
      5.113  0.5944E-01  0.4976E+00
      5.215  0.6639E-01  0.5044E+00
      5.318  0.7185E-01  0.5118E+00
      5.421  0.7412E-01  0.5194E+00
      5.523  0.8236E-01  0.5278E+00
      5.626  0.7397E-01  0.5354E+00
      5.729  0.6012E-01  0.5416E+00
      5.832  0.6755E-01  0.5485E+00
      5.934  0.7824E-01  0.5566E+00
      6.037  0.7852E-01  0.5646E+00
      6.140  0.7224E-01  0.5721E+00
      6.242  0.6713E-01  0.5790E+00
      6.345  0.7300E-01  0.5865E+00
      6.448  0.7465E-01  0.5941E+00
      6.551  0.7118E-01  0.6014E+00
      6.653  0.6010E-01  0.6076E+00
      6.756  0.6042E-01  0.6138E+00
      6.859  0.7380E-01  0.6214E+00
      6.961  0.6313E-01  0.6279E+00
      7.064  0.4345E-01  0.6323E+00
      7.167  0.2693E-01  0.6351E+00
      7.270  0.1363E-01  0.6365E+00
      7.372  0.9146E-02  0.6375E+00
      7.475  0.7215E-02  0.6382E+00
      7.578  0.5077E-02  0.6387E+00
      7.680  0.3441E-02  0.6391E+00
      7.783  0.3223E-02  0.6394E+00
      7.886  0.2541E-02  0.6397E+00
      7.989  0.1373E-02  0.6398E+00
      8.091  0.8418E-03  0.6399E+00
      8.194  0.8588E-03  0.6400E+00
      8.297  0.2017E-03  0.6400E+00
      8.399  0.7886E-05  0.6400E+00
      8.502  0.4576E-07  0.6400E+00
      8.605  0.3673E-10  0.6400E+00
      8.708  0.3923E-14  0.6400E+00
      8.810  0.2570E-19  0.6400E+00
      8.913  0.0000E+00  0.6400E+00
      9.016  0.0000E+00  0.6400E+00
      9.118  0.0000E+00  0.6400E+00
      9.221  0.0000E+00  0.6400E+00
      9.324  0.0000E+00  0.6400E+00
      9.427  0.0000E+00  0.6400E+00
      9.529  0.0000E+00  0.6400E+00
