   8   8   1  16
  0.4142730E+02  0.5051000E-09  0.5051000E-09  0.1500000E-08  0.5000000E-15
  1.000000000000000E-004
  CAR 
 PDoS_HSE06                              
     33.92976281    -22.63349221 4000     -2.20239924      1.00000000
    -22.633  0.0000E+00  0.0000E+00
    -22.619  0.0000E+00  0.0000E+00
    -22.605  0.0000E+00  0.0000E+00
    -22.591  0.0000E+00  0.0000E+00
    -22.577  0.0000E+00  0.0000E+00
    -22.563  0.0000E+00  0.0000E+00
    -22.549  0.0000E+00  0.0000E+00
    -22.534  0.0000E+00  0.0000E+00
    -22.520  0.0000E+00  0.0000E+00
    -22.506  0.0000E+00  0.0000E+00
    -22.492  0.0000E+00  0.0000E+00
    -22.478  0.0000E+00  0.0000E+00
    -22.464  0.0000E+00  0.0000E+00
    -22.450  0.0000E+00  0.0000E+00
    -22.435  0.0000E+00  0.0000E+00
    -22.421  0.0000E+00  0.0000E+00
    -22.407  0.0000E+00  0.0000E+00
    -22.393  0.0000E+00  0.0000E+00
    -22.379  0.0000E+00  0.0000E+00
    -22.365  0.0000E+00  0.0000E+00
    -22.351  0.0000E+00  0.0000E+00
    -22.336  0.0000E+00  0.0000E+00
    -22.322  0.0000E+00  0.0000E+00
    -22.308  0.0000E+00  0.0000E+00
    -22.294  0.0000E+00  0.0000E+00
    -22.280  0.0000E+00  0.0000E+00
    -22.266  0.0000E+00  0.0000E+00
    -22.252  0.0000E+00  0.0000E+00
    -22.237  0.0000E+00  0.0000E+00
    -22.223  0.0000E+00  0.0000E+00
    -22.209  0.0000E+00  0.0000E+00
    -22.195  0.0000E+00  0.0000E+00
    -22.181  0.0000E+00  0.0000E+00
    -22.167  0.0000E+00  0.0000E+00
    -22.153  0.0000E+00  0.0000E+00
    -22.138  0.0000E+00  0.0000E+00
    -22.124  0.0000E+00  0.0000E+00
    -22.110  0.0000E+00  0.0000E+00
    -22.096  0.0000E+00  0.0000E+00
    -22.082  0.0000E+00  0.0000E+00
    -22.068  0.0000E+00  0.0000E+00
    -22.054  0.0000E+00  0.0000E+00
    -22.039  0.0000E+00  0.0000E+00
    -22.025  0.0000E+00  0.0000E+00
    -22.011  0.0000E+00  0.0000E+00
    -21.997  0.0000E+00  0.0000E+00
    -21.983  0.0000E+00  0.0000E+00
    -21.969  0.0000E+00  0.0000E+00
    -21.955  0.0000E+00  0.0000E+00
    -21.940  0.0000E+00  0.0000E+00
    -21.926  0.0000E+00  0.0000E+00
    -21.912  0.0000E+00  0.0000E+00
    -21.898  0.0000E+00  0.0000E+00
    -21.884  0.0000E+00  0.0000E+00
    -21.870  0.0000E+00  0.0000E+00
    -21.856  0.0000E+00  0.0000E+00
    -21.841  0.0000E+00  0.0000E+00
    -21.827  0.0000E+00  0.0000E+00
    -21.813  0.0000E+00  0.0000E+00
    -21.799  0.0000E+00  0.0000E+00
    -21.785  0.0000E+00  0.0000E+00
    -21.771  0.0000E+00  0.0000E+00
    -21.757  0.0000E+00  0.0000E+00
    -21.742  0.0000E+00  0.0000E+00
    -21.728  0.0000E+00  0.0000E+00
    -21.714  0.0000E+00  0.0000E+00
    -21.700  0.0000E+00  0.0000E+00
    -21.686  0.0000E+00  0.0000E+00
    -21.672  0.0000E+00  0.0000E+00
    -21.658  0.0000E+00  0.0000E+00
    -21.643  0.0000E+00  0.0000E+00
    -21.629  0.0000E+00  0.0000E+00
    -21.615  0.0000E+00  0.0000E+00
    -21.601  0.0000E+00  0.0000E+00
    -21.587  0.0000E+00  0.0000E+00
    -21.573  0.0000E+00  0.0000E+00
    -21.559  0.0000E+00  0.0000E+00
    -21.544  0.0000E+00  0.0000E+00
    -21.530  0.0000E+00  0.0000E+00
    -21.516  0.0000E+00  0.0000E+00
    -21.502  0.0000E+00  0.0000E+00
    -21.488  0.0000E+00  0.0000E+00
    -21.474  0.0000E+00  0.0000E+00
    -21.460  0.0000E+00  0.0000E+00
    -21.445  0.0000E+00  0.0000E+00
    -21.431  0.0000E+00  0.0000E+00
    -21.417  0.0000E+00  0.0000E+00
    -21.403  0.0000E+00  0.0000E+00
    -21.389  0.0000E+00  0.0000E+00
    -21.375  0.0000E+00  0.0000E+00
    -21.361  0.0000E+00  0.0000E+00
    -21.346  0.0000E+00  0.0000E+00
    -21.332  0.0000E+00  0.0000E+00
    -21.318  0.0000E+00  0.0000E+00
    -21.304  0.0000E+00  0.0000E+00
    -21.290  0.0000E+00  0.0000E+00
    -21.276  0.0000E+00  0.0000E+00
    -21.261  0.0000E+00  0.0000E+00
    -21.247  0.0000E+00  0.0000E+00
    -21.233  0.0000E+00  0.0000E+00
    -21.219  0.0000E+00  0.0000E+00
    -21.205  0.0000E+00  0.0000E+00
    -21.191  0.0000E+00  0.0000E+00
    -21.177  0.0000E+00  0.0000E+00
    -21.162  0.0000E+00  0.0000E+00
    -21.148  0.0000E+00  0.0000E+00
    -21.134  0.0000E+00  0.0000E+00
    -21.120  0.0000E+00  0.0000E+00
    -21.106  0.0000E+00  0.0000E+00
    -21.092  0.0000E+00  0.0000E+00
    -21.078  0.0000E+00  0.0000E+00
    -21.063  0.0000E+00  0.0000E+00
    -21.049  0.0000E+00  0.0000E+00
    -21.035  0.0000E+00  0.0000E+00
    -21.021  0.0000E+00  0.0000E+00
    -21.007  0.0000E+00  0.0000E+00
    -20.993  0.0000E+00  0.0000E+00
    -20.979  0.0000E+00  0.0000E+00
    -20.964  0.0000E+00  0.0000E+00
    -20.950  0.0000E+00  0.0000E+00
    -20.936  0.0000E+00  0.0000E+00
    -20.922  0.0000E+00  0.0000E+00
    -20.908  0.0000E+00  0.0000E+00
    -20.894  0.0000E+00  0.0000E+00
    -20.880  0.0000E+00  0.0000E+00
    -20.865  0.0000E+00  0.0000E+00
    -20.851  0.0000E+00  0.0000E+00
    -20.837  0.0000E+00  0.0000E+00
    -20.823  0.0000E+00  0.0000E+00
    -20.809  0.0000E+00  0.0000E+00
    -20.795  0.0000E+00  0.0000E+00
    -20.781  0.0000E+00  0.0000E+00
    -20.766  0.0000E+00  0.0000E+00
    -20.752  0.0000E+00  0.0000E+00
    -20.738  0.0000E+00  0.0000E+00
    -20.724  0.0000E+00  0.0000E+00
    -20.710  0.0000E+00  0.0000E+00
    -20.696  0.0000E+00  0.0000E+00
    -20.682  0.0000E+00  0.0000E+00
    -20.667  0.0000E+00  0.0000E+00
    -20.653  0.2716E-16  0.3842E-18
    -20.639  0.5432E-16  0.1152E-17
    -20.625  0.6790E-15  0.1076E-16
    -20.611  0.3178E-14  0.5570E-16
    -20.597  0.1505E-13  0.2685E-15
    -20.583  0.6986E-13  0.1257E-14
    -20.568  0.3099E-12  0.5640E-14
    -20.554  0.1326E-11  0.2440E-13
    -20.540  0.5452E-11  0.1015E-12
    -20.526  0.2156E-10  0.4065E-12
    -20.512  0.8202E-10  0.1567E-11
    -20.498  0.3000E-09  0.5810E-11
    -20.484  0.1056E-08  0.2074E-10
    -20.469  0.3573E-08  0.7128E-10
    -20.455  0.1163E-07  0.2358E-09
    -20.441  0.3643E-07  0.7510E-09
    -20.427  0.1097E-06  0.2303E-08
    -20.413  0.3181E-06  0.6802E-08
    -20.399  0.8871E-06  0.1935E-07
    -20.385  0.2381E-05  0.5302E-07
    -20.370  0.6147E-05  0.1400E-06
    -20.356  0.1528E-04  0.3561E-06
    -20.342  0.3655E-04  0.8731E-06
    -20.328  0.8417E-04  0.2064E-05
    -20.314  0.1866E-03  0.4703E-05
    -20.300  0.3985E-03  0.1034E-04
    -20.286  0.8195E-03  0.2193E-04
    -20.271  0.1623E-02  0.4489E-04
    -20.257  0.3099E-02  0.8872E-04
    -20.243  0.5701E-02  0.1694E-03
    -20.229  0.1011E-01  0.3124E-03
    -20.215  0.1730E-01  0.5571E-03
    -20.201  0.2855E-01  0.9609E-03
    -20.187  0.4548E-01  0.1604E-02
    -20.172  0.6996E-01  0.2594E-02
    -20.158  0.1040E+00  0.4065E-02
    -20.144  0.1494E+00  0.6178E-02
    -20.130  0.2078E+00  0.9117E-02
    -20.116  0.2798E+00  0.1307E-01
    -20.102  0.3652E+00  0.1824E-01
    -20.088  0.4625E+00  0.2478E-01
    -20.073  0.5691E+00  0.3283E-01
    -20.059  0.6815E+00  0.4247E-01
    -20.045  0.7952E+00  0.5372E-01
    -20.031  0.9060E+00  0.6653E-01
    -20.017  0.1010E+01  0.8082E-01
    -20.003  0.1103E+01  0.9642E-01
    -19.988  0.1184E+01  0.1132E+00
    -19.974  0.1252E+01  0.1309E+00
    -19.960  0.1306E+01  0.1494E+00
    -19.946  0.1349E+01  0.1684E+00
    -19.932  0.1381E+01  0.1880E+00
    -19.918  0.1405E+01  0.2078E+00
    -19.904  0.1422E+01  0.2280E+00
    -19.889  0.1435E+01  0.2482E+00
    -19.875  0.1444E+01  0.2687E+00
    -19.861  0.1450E+01  0.2892E+00
    -19.847  0.1455E+01  0.3098E+00
    -19.833  0.1459E+01  0.3304E+00
    -19.819  0.1462E+01  0.3511E+00
    -19.805  0.1466E+01  0.3718E+00
    -19.790  0.1471E+01  0.3926E+00
    -19.776  0.1476E+01  0.4135E+00
    -19.762  0.1483E+01  0.4345E+00
    -19.748  0.1489E+01  0.4555E+00
    -19.734  0.1494E+01  0.4767E+00
    -19.720  0.1497E+01  0.4978E+00
    -19.706  0.1499E+01  0.5190E+00
    -19.691  0.1499E+01  0.5402E+00
    -19.677  0.1500E+01  0.5615E+00
    -19.663  0.1503E+01  0.5827E+00
    -19.649  0.1510E+01  0.6041E+00
    -19.635  0.1521E+01  0.6256E+00
    -19.621  0.1534E+01  0.6473E+00
    -19.607  0.1548E+01  0.6692E+00
    -19.592  0.1559E+01  0.6912E+00
    -19.578  0.1567E+01  0.7134E+00
    -19.564  0.1569E+01  0.7356E+00
    -19.550  0.1566E+01  0.7577E+00
    -19.536  0.1562E+01  0.7798E+00
    -19.522  0.1560E+01  0.8019E+00
    -19.508  0.1563E+01  0.8240E+00
    -19.493  0.1574E+01  0.8462E+00
    -19.479  0.1593E+01  0.8688E+00
    -19.465  0.1619E+01  0.8917E+00
    -19.451  0.1647E+01  0.9150E+00
    -19.437  0.1673E+01  0.9386E+00
    -19.423  0.1693E+01  0.9626E+00
    -19.409  0.1704E+01  0.9867E+00
    -19.394  0.1706E+01  0.1011E+01
    -19.380  0.1702E+01  0.1035E+01
    -19.366  0.1698E+01  0.1059E+01
    -19.352  0.1700E+01  0.1083E+01
    -19.338  0.1713E+01  0.1107E+01
    -19.324  0.1741E+01  0.1132E+01
    -19.310  0.1785E+01  0.1157E+01
    -19.295  0.1843E+01  0.1183E+01
    -19.281  0.1909E+01  0.1210E+01
    -19.267  0.1976E+01  0.1238E+01
    -19.253  0.2039E+01  0.1267E+01
    -19.239  0.2092E+01  0.1296E+01
    -19.225  0.2133E+01  0.1327E+01
    -19.211  0.2164E+01  0.1357E+01
    -19.196  0.2187E+01  0.1388E+01
    -19.182  0.2208E+01  0.1419E+01
    -19.168  0.2229E+01  0.1451E+01
    -19.154  0.2252E+01  0.1483E+01
    -19.140  0.2274E+01  0.1515E+01
    -19.126  0.2289E+01  0.1547E+01
    -19.112  0.2288E+01  0.1580E+01
    -19.097  0.2264E+01  0.1612E+01
    -19.083  0.2209E+01  0.1643E+01
    -19.069  0.2122E+01  0.1673E+01
    -19.055  0.2004E+01  0.1701E+01
    -19.041  0.1865E+01  0.1728E+01
    -19.027  0.1714E+01  0.1752E+01
    -19.013  0.1564E+01  0.1774E+01
    -18.998  0.1424E+01  0.1794E+01
    -18.984  0.1303E+01  0.1813E+01
    -18.970  0.1204E+01  0.1830E+01
    -18.956  0.1125E+01  0.1846E+01
    -18.942  0.1061E+01  0.1861E+01
    -18.928  0.1005E+01  0.1875E+01
    -18.914  0.9515E+00  0.1888E+01
    -18.899  0.8945E+00  0.1901E+01
    -18.885  0.8316E+00  0.1913E+01
    -18.871  0.7629E+00  0.1923E+01
    -18.857  0.6907E+00  0.1933E+01
    -18.843  0.6188E+00  0.1942E+01
    -18.829  0.5510E+00  0.1950E+01
    -18.815  0.4903E+00  0.1957E+01
    -18.800  0.4379E+00  0.1963E+01
    -18.786  0.3938E+00  0.1968E+01
    -18.772  0.3565E+00  0.1974E+01
    -18.758  0.3239E+00  0.1978E+01
    -18.744  0.2940E+00  0.1982E+01
    -18.730  0.2656E+00  0.1986E+01
    -18.716  0.2385E+00  0.1989E+01
    -18.701  0.2137E+00  0.1992E+01
    -18.687  0.1926E+00  0.1995E+01
    -18.673  0.1772E+00  0.1998E+01
    -18.659  0.1691E+00  0.2000E+01
    -18.645  0.1691E+00  0.2002E+01
    -18.631  0.1773E+00  0.2005E+01
    -18.616  0.1926E+00  0.2008E+01
    -18.602  0.2134E+00  0.2011E+01
    -18.588  0.2379E+00  0.2014E+01
    -18.574  0.2645E+00  0.2018E+01
    -18.560  0.2925E+00  0.2022E+01
    -18.546  0.3224E+00  0.2026E+01
    -18.532  0.3558E+00  0.2032E+01
    -18.517  0.3951E+00  0.2037E+01
    -18.503  0.4429E+00  0.2043E+01
    -18.489  0.5012E+00  0.2050E+01
    -18.475  0.5708E+00  0.2059E+01
    -18.461  0.6504E+00  0.2068E+01
    -18.447  0.7375E+00  0.2078E+01
    -18.433  0.8281E+00  0.2090E+01
    -18.418  0.9183E+00  0.2103E+01
    -18.404  0.1005E+01  0.2117E+01
    -18.390  0.1088E+01  0.2132E+01
    -18.376  0.1169E+01  0.2149E+01
    -18.362  0.1250E+01  0.2167E+01
    -18.348  0.1339E+01  0.2186E+01
    -18.334  0.1437E+01  0.2206E+01
    -18.319  0.1549E+01  0.2228E+01
    -18.305  0.1672E+01  0.2251E+01
    -18.291  0.1801E+01  0.2277E+01
    -18.277  0.1927E+01  0.2304E+01
    -18.263  0.2038E+01  0.2333E+01
    -18.249  0.2124E+01  0.2363E+01
    -18.235  0.2174E+01  0.2394E+01
    -18.220  0.2183E+01  0.2425E+01
    -18.206  0.2150E+01  0.2455E+01
    -18.192  0.2079E+01  0.2485E+01
    -18.178  0.1981E+01  0.2513E+01
    -18.164  0.1865E+01  0.2539E+01
    -18.150  0.1746E+01  0.2564E+01
    -18.136  0.1634E+01  0.2587E+01
    -18.121  0.1540E+01  0.2609E+01
    -18.107  0.1469E+01  0.2629E+01
    -18.093  0.1423E+01  0.2649E+01
    -18.079  0.1400E+01  0.2669E+01
    -18.065  0.1394E+01  0.2689E+01
    -18.051  0.1400E+01  0.2709E+01
    -18.037  0.1409E+01  0.2729E+01
    -18.022  0.1416E+01  0.2749E+01
    -18.008  0.1415E+01  0.2769E+01
    -17.994  0.1402E+01  0.2789E+01
    -17.980  0.1376E+01  0.2808E+01
    -17.966  0.1336E+01  0.2827E+01
    -17.952  0.1285E+01  0.2845E+01
    -17.938  0.1225E+01  0.2862E+01
    -17.923  0.1160E+01  0.2879E+01
    -17.909  0.1095E+01  0.2894E+01
    -17.895  0.1034E+01  0.2909E+01
    -17.881  0.9831E+00  0.2923E+01
    -17.867  0.9457E+00  0.2936E+01
    -17.853  0.9253E+00  0.2949E+01
    -17.839  0.9234E+00  0.2962E+01
    -17.824  0.9391E+00  0.2976E+01
    -17.810  0.9695E+00  0.2989E+01
    -17.796  0.1009E+01  0.3004E+01
    -17.782  0.1051E+01  0.3019E+01
    -17.768  0.1088E+01  0.3034E+01
    -17.754  0.1112E+01  0.3050E+01
    -17.740  0.1120E+01  0.3065E+01
    -17.725  0.1108E+01  0.3081E+01
    -17.711  0.1076E+01  0.3096E+01
    -17.697  0.1029E+01  0.3111E+01
    -17.683  0.9716E+00  0.3125E+01
    -17.669  0.9102E+00  0.3138E+01
    -17.655  0.8514E+00  0.3150E+01
    -17.641  0.8004E+00  0.3161E+01
    -17.626  0.7603E+00  0.3172E+01
    -17.612  0.7323E+00  0.3182E+01
    -17.598  0.7157E+00  0.3192E+01
    -17.584  0.7091E+00  0.3202E+01
    -17.570  0.7106E+00  0.3212E+01
    -17.556  0.7191E+00  0.3222E+01
    -17.542  0.7338E+00  0.3233E+01
    -17.527  0.7546E+00  0.3243E+01
    -17.513  0.7811E+00  0.3255E+01
    -17.499  0.8120E+00  0.3266E+01
    -17.485  0.8447E+00  0.3278E+01
    -17.471  0.8754E+00  0.3290E+01
    -17.457  0.8994E+00  0.3303E+01
    -17.443  0.9118E+00  0.3316E+01
    -17.428  0.9086E+00  0.3329E+01
    -17.414  0.8874E+00  0.3341E+01
    -17.400  0.8485E+00  0.3353E+01
    -17.386  0.7943E+00  0.3365E+01
    -17.372  0.7298E+00  0.3375E+01
    -17.358  0.6614E+00  0.3384E+01
    -17.344  0.5962E+00  0.3393E+01
    -17.329  0.5410E+00  0.3400E+01
    -17.315  0.5010E+00  0.3407E+01
    -17.301  0.4797E+00  0.3414E+01
    -17.287  0.4776E+00  0.3421E+01
    -17.273  0.4932E+00  0.3428E+01
    -17.259  0.5227E+00  0.3435E+01
    -17.244  0.5613E+00  0.3443E+01
    -17.230  0.6036E+00  0.3452E+01
    -17.216  0.6447E+00  0.3461E+01
    -17.202  0.6808E+00  0.3471E+01
    -17.188  0.7092E+00  0.3481E+01
    -17.174  0.7284E+00  0.3491E+01
    -17.160  0.7378E+00  0.3501E+01
    -17.145  0.7374E+00  0.3512E+01
    -17.131  0.7275E+00  0.3522E+01
    -17.117  0.7088E+00  0.3532E+01
    -17.103  0.6824E+00  0.3542E+01
    -17.089  0.6494E+00  0.3551E+01
    -17.075  0.6117E+00  0.3560E+01
    -17.061  0.5711E+00  0.3568E+01
    -17.046  0.5296E+00  0.3575E+01
    -17.032  0.4889E+00  0.3582E+01
    -17.018  0.4506E+00  0.3588E+01
    -17.004  0.4162E+00  0.3594E+01
    -16.990  0.3869E+00  0.3600E+01
    -16.976  0.3645E+00  0.3605E+01
    -16.962  0.3506E+00  0.3610E+01
    -16.947  0.3473E+00  0.3615E+01
    -16.933  0.3560E+00  0.3620E+01
    -16.919  0.3774E+00  0.3625E+01
    -16.905  0.4108E+00  0.3631E+01
    -16.891  0.4540E+00  0.3637E+01
    -16.877  0.5029E+00  0.3645E+01
    -16.863  0.5523E+00  0.3652E+01
    -16.848  0.5963E+00  0.3661E+01
    -16.834  0.6295E+00  0.3670E+01
    -16.820  0.6474E+00  0.3679E+01
    -16.806  0.6475E+00  0.3688E+01
    -16.792  0.6295E+00  0.3697E+01
    -16.778  0.5951E+00  0.3705E+01
    -16.764  0.5479E+00  0.3713E+01
    -16.749  0.4928E+00  0.3720E+01
    -16.735  0.4352E+00  0.3726E+01
    -16.721  0.3804E+00  0.3732E+01
    -16.707  0.3328E+00  0.3736E+01
    -16.693  0.2956E+00  0.3740E+01
    -16.679  0.2706E+00  0.3744E+01
    -16.665  0.2578E+00  0.3748E+01
    -16.650  0.2563E+00  0.3752E+01
    -16.636  0.2643E+00  0.3755E+01
    -16.622  0.2797E+00  0.3759E+01
    -16.608  0.3011E+00  0.3764E+01
    -16.594  0.3282E+00  0.3768E+01
    -16.580  0.3619E+00  0.3773E+01
    -16.566  0.4042E+00  0.3779E+01
    -16.551  0.4581E+00  0.3785E+01
    -16.537  0.5258E+00  0.3793E+01
    -16.523  0.6088E+00  0.3802E+01
    -16.509  0.7065E+00  0.3812E+01
    -16.495  0.8157E+00  0.3823E+01
    -16.481  0.9314E+00  0.3836E+01
    -16.467  0.1046E+01  0.3851E+01
    -16.452  0.1154E+01  0.3867E+01
    -16.438  0.1246E+01  0.3885E+01
    -16.424  0.1319E+01  0.3904E+01
    -16.410  0.1370E+01  0.3923E+01
    -16.396  0.1399E+01  0.3943E+01
    -16.382  0.1408E+01  0.3963E+01
    -16.368  0.1401E+01  0.3983E+01
    -16.353  0.1385E+01  0.4002E+01
    -16.339  0.1364E+01  0.4021E+01
    -16.325  0.1344E+01  0.4040E+01
    -16.311  0.1333E+01  0.4059E+01
    -16.297  0.1334E+01  0.4078E+01
    -16.283  0.1349E+01  0.4097E+01
    -16.269  0.1382E+01  0.4117E+01
    -16.254  0.1429E+01  0.4137E+01
    -16.240  0.1488E+01  0.4158E+01
    -16.226  0.1552E+01  0.4180E+01
    -16.212  0.1615E+01  0.4203E+01
    -16.198  0.1668E+01  0.4226E+01
    -16.184  0.1706E+01  0.4251E+01
    -16.170  0.1727E+01  0.4275E+01
    -16.155  0.1732E+01  0.4299E+01
    -16.141  0.1724E+01  0.4324E+01
    -16.127  0.1712E+01  0.4348E+01
    -16.113  0.1702E+01  0.4372E+01
    -16.099  0.1702E+01  0.4396E+01
    -16.085  0.1717E+01  0.4421E+01
    -16.071  0.1747E+01  0.4445E+01
    -16.056  0.1789E+01  0.4471E+01
    -16.042  0.1837E+01  0.4497E+01
    -16.028  0.1882E+01  0.4523E+01
    -16.014  0.1917E+01  0.4550E+01
    -16.000  0.1936E+01  0.4578E+01
    -15.986  0.1936E+01  0.4605E+01
    -15.972  0.1919E+01  0.4632E+01
    -15.957  0.1892E+01  0.4659E+01
    -15.943  0.1863E+01  0.4685E+01
    -15.929  0.1843E+01  0.4711E+01
    -15.915  0.1842E+01  0.4737E+01
    -15.901  0.1866E+01  0.4764E+01
    -15.887  0.1921E+01  0.4791E+01
    -15.872  0.2006E+01  0.4819E+01
    -15.858  0.2117E+01  0.4849E+01
    -15.844  0.2247E+01  0.4881E+01
    -15.830  0.2386E+01  0.4915E+01
    -15.816  0.2525E+01  0.4951E+01
    -15.802  0.2653E+01  0.4988E+01
    -15.788  0.2764E+01  0.5027E+01
    -15.773  0.2851E+01  0.5067E+01
    -15.759  0.2911E+01  0.5109E+01
    -15.745  0.2942E+01  0.5150E+01
    -15.731  0.2943E+01  0.5192E+01
    -15.717  0.2915E+01  0.5233E+01
    -15.703  0.2861E+01  0.5274E+01
    -15.689  0.2782E+01  0.5313E+01
    -15.674  0.2683E+01  0.5351E+01
    -15.660  0.2571E+01  0.5387E+01
    -15.646  0.2451E+01  0.5422E+01
    -15.632  0.2331E+01  0.5455E+01
    -15.618  0.2214E+01  0.5486E+01
    -15.604  0.2107E+01  0.5516E+01
    -15.590  0.2010E+01  0.5544E+01
    -15.575  0.1926E+01  0.5572E+01
    -15.561  0.1853E+01  0.5598E+01
    -15.547  0.1789E+01  0.5623E+01
    -15.533  0.1732E+01  0.5648E+01
    -15.519  0.1681E+01  0.5672E+01
    -15.505  0.1633E+01  0.5695E+01
    -15.491  0.1589E+01  0.5717E+01
    -15.476  0.1548E+01  0.5739E+01
    -15.462  0.1511E+01  0.5760E+01
    -15.448  0.1476E+01  0.5781E+01
    -15.434  0.1443E+01  0.5802E+01
    -15.420  0.1409E+01  0.5822E+01
    -15.406  0.1373E+01  0.5841E+01
    -15.392  0.1331E+01  0.5860E+01
    -15.377  0.1282E+01  0.5878E+01
    -15.363  0.1224E+01  0.5895E+01
    -15.349  0.1155E+01  0.5912E+01
    -15.335  0.1075E+01  0.5927E+01
    -15.321  0.9846E+00  0.5941E+01
    -15.307  0.8850E+00  0.5953E+01
    -15.293  0.7792E+00  0.5964E+01
    -15.278  0.6706E+00  0.5974E+01
    -15.264  0.5631E+00  0.5982E+01
    -15.250  0.4605E+00  0.5988E+01
    -15.236  0.3663E+00  0.5993E+01
    -15.222  0.2829E+00  0.5997E+01
    -15.208  0.2120E+00  0.6000E+01
    -15.194  0.1540E+00  0.6003E+01
    -15.179  0.1084E+00  0.6004E+01
    -15.165  0.7389E-01  0.6005E+01
    -15.151  0.4897E-01  0.6006E+01
    -15.137  0.3186E-01  0.6006E+01
    -15.123  0.2095E-01  0.6007E+01
    -15.109  0.1496E-01  0.6007E+01
    -15.095  0.1297E-01  0.6007E+01
    -15.080  0.1453E-01  0.6007E+01
    -15.066  0.1957E-01  0.6008E+01
    -15.052  0.2827E-01  0.6008E+01
    -15.038  0.4097E-01  0.6008E+01
    -15.024  0.5793E-01  0.6009E+01
    -15.010  0.7911E-01  0.6010E+01
    -14.996  0.1040E+00  0.6012E+01
    -14.981  0.1314E+00  0.6014E+01
    -14.967  0.1596E+00  0.6016E+01
    -14.953  0.1863E+00  0.6019E+01
    -14.939  0.2090E+00  0.6022E+01
    -14.925  0.2252E+00  0.6025E+01
    -14.911  0.2333E+00  0.6028E+01
    -14.897  0.2322E+00  0.6031E+01
    -14.882  0.2222E+00  0.6035E+01
    -14.868  0.2045E+00  0.6037E+01
    -14.854  0.1813E+00  0.6040E+01
    -14.840  0.1550E+00  0.6042E+01
    -14.826  0.1287E+00  0.6044E+01
    -14.812  0.1047E+00  0.6045E+01
    -14.798  0.8547E-01  0.6047E+01
    -14.783  0.7249E-01  0.6048E+01
    -14.769  0.6693E-01  0.6049E+01
    -14.755  0.6944E-01  0.6050E+01
    -14.741  0.8022E-01  0.6051E+01
    -14.727  0.9903E-01  0.6052E+01
    -14.713  0.1252E+00  0.6054E+01
    -14.699  0.1576E+00  0.6056E+01
    -14.684  0.1945E+00  0.6059E+01
    -14.670  0.2340E+00  0.6062E+01
    -14.656  0.2736E+00  0.6066E+01
    -14.642  0.3107E+00  0.6070E+01
    -14.628  0.3431E+00  0.6075E+01
    -14.614  0.3687E+00  0.6081E+01
    -14.600  0.3858E+00  0.6086E+01
    -14.585  0.3935E+00  0.6092E+01
    -14.571  0.3916E+00  0.6097E+01
    -14.557  0.3808E+00  0.6103E+01
    -14.543  0.3624E+00  0.6108E+01
    -14.529  0.3390E+00  0.6112E+01
    -14.515  0.3139E+00  0.6117E+01
    -14.500  0.2916E+00  0.6121E+01
    -14.486  0.2772E+00  0.6125E+01
    -14.472  0.2760E+00  0.6129E+01
    -14.458  0.2936E+00  0.6133E+01
    -14.444  0.3346E+00  0.6138E+01
    -14.430  0.4022E+00  0.6143E+01
    -14.416  0.4976E+00  0.6150E+01
    -14.401  0.6198E+00  0.6159E+01
    -14.387  0.7647E+00  0.6170E+01
    -14.373  0.9265E+00  0.6183E+01
    -14.359  0.1098E+01  0.6199E+01
    -14.345  0.1271E+01  0.6217E+01
    -14.331  0.1439E+01  0.6237E+01
    -14.317  0.1598E+01  0.6260E+01
    -14.302  0.1745E+01  0.6284E+01
    -14.288  0.1883E+01  0.6311E+01
    -14.274  0.2013E+01  0.6339E+01
    -14.260  0.2138E+01  0.6370E+01
    -14.246  0.2262E+01  0.6402E+01
    -14.232  0.2383E+01  0.6435E+01
    -14.218  0.2500E+01  0.6471E+01
    -14.203  0.2606E+01  0.6508E+01
    -14.189  0.2695E+01  0.6546E+01
    -14.175  0.2758E+01  0.6585E+01
    -14.161  0.2788E+01  0.6624E+01
    -14.147  0.2778E+01  0.6663E+01
    -14.133  0.2724E+01  0.6702E+01
    -14.119  0.2625E+01  0.6739E+01
    -14.104  0.2484E+01  0.6774E+01
    -14.090  0.2305E+01  0.6807E+01
    -14.076  0.2098E+01  0.6836E+01
    -14.062  0.1875E+01  0.6863E+01
    -14.048  0.1650E+01  0.6886E+01
    -14.034  0.1438E+01  0.6907E+01
    -14.020  0.1256E+01  0.6924E+01
    -14.005  0.1118E+01  0.6940E+01
    -13.991  0.1037E+01  0.6955E+01
    -13.977  0.1018E+01  0.6969E+01
    -13.963  0.1065E+01  0.6984E+01
    -13.949  0.1173E+01  0.7001E+01
    -13.935  0.1330E+01  0.7020E+01
    -13.921  0.1520E+01  0.7041E+01
    -13.906  0.1720E+01  0.7066E+01
    -13.892  0.1909E+01  0.7093E+01
    -13.878  0.2062E+01  0.7122E+01
    -13.864  0.2162E+01  0.7152E+01
    -13.850  0.2194E+01  0.7183E+01
    -13.836  0.2155E+01  0.7214E+01
    -13.822  0.2046E+01  0.7243E+01
    -13.807  0.1879E+01  0.7269E+01
    -13.793  0.1669E+01  0.7293E+01
    -13.779  0.1435E+01  0.7313E+01
    -13.765  0.1196E+01  0.7330E+01
    -13.751  0.9696E+00  0.7344E+01
    -13.737  0.7683E+00  0.7355E+01
    -13.723  0.6011E+00  0.7363E+01
    -13.708  0.4723E+00  0.7370E+01
    -13.694  0.3822E+00  0.7375E+01
    -13.680  0.3283E+00  0.7380E+01
    -13.666  0.3067E+00  0.7384E+01
    -13.652  0.3130E+00  0.7389E+01
    -13.638  0.3439E+00  0.7394E+01
    -13.624  0.3970E+00  0.7399E+01
    -13.609  0.4717E+00  0.7406E+01
    -13.595  0.5683E+00  0.7414E+01
    -13.581  0.6871E+00  0.7424E+01
    -13.567  0.8269E+00  0.7435E+01
    -13.553  0.9841E+00  0.7449E+01
    -13.539  0.1151E+01  0.7466E+01
    -13.525  0.1316E+01  0.7484E+01
    -13.510  0.1465E+01  0.7505E+01
    -13.496  0.1583E+01  0.7527E+01
    -13.482  0.1654E+01  0.7551E+01
    -13.468  0.1670E+01  0.7574E+01
    -13.454  0.1626E+01  0.7597E+01
    -13.440  0.1525E+01  0.7619E+01
    -13.426  0.1377E+01  0.7638E+01
    -13.411  0.1197E+01  0.7655E+01
    -13.397  0.1002E+01  0.7669E+01
    -13.383  0.8075E+00  0.7681E+01
    -13.369  0.6277E+00  0.7690E+01
    -13.355  0.4723E+00  0.7696E+01
    -13.341  0.3471E+00  0.7701E+01
    -13.327  0.2535E+00  0.7705E+01
    -13.312  0.1907E+00  0.7708E+01
    -13.298  0.1559E+00  0.7710E+01
    -13.284  0.1457E+00  0.7712E+01
    -13.270  0.1572E+00  0.7714E+01
    -13.256  0.1883E+00  0.7717E+01
    -13.242  0.2382E+00  0.7720E+01
    -13.227  0.3075E+00  0.7725E+01
    -13.213  0.3985E+00  0.7730E+01
    -13.199  0.5144E+00  0.7737E+01
    -13.185  0.6597E+00  0.7747E+01
    -13.171  0.8387E+00  0.7759E+01
    -13.157  0.1055E+01  0.7774E+01
    -13.143  0.1308E+01  0.7792E+01
    -13.128  0.1596E+01  0.7815E+01
    -13.114  0.1910E+01  0.7842E+01
    -13.100  0.2238E+01  0.7873E+01
    -13.086  0.2560E+01  0.7909E+01
    -13.072  0.2858E+01  0.7950E+01
    -13.058  0.3110E+01  0.7994E+01
    -13.044  0.3295E+01  0.8041E+01
    -13.029  0.3401E+01  0.8089E+01
    -13.015  0.3418E+01  0.8137E+01
    -13.001  0.3346E+01  0.8184E+01
    -12.987  0.3193E+01  0.8229E+01
    -12.973  0.2974E+01  0.8272E+01
    -12.959  0.2709E+01  0.8310E+01
    -12.945  0.2421E+01  0.8344E+01
    -12.930  0.2136E+01  0.8374E+01
    -12.916  0.1876E+01  0.8401E+01
    -12.902  0.1661E+01  0.8424E+01
    -12.888  0.1508E+01  0.8446E+01
    -12.874  0.1425E+01  0.8466E+01
    -12.860  0.1416E+01  0.8486E+01
    -12.846  0.1476E+01  0.8507E+01
    -12.831  0.1596E+01  0.8529E+01
    -12.817  0.1760E+01  0.8554E+01
    -12.803  0.1947E+01  0.8582E+01
    -12.789  0.2135E+01  0.8612E+01
    -12.775  0.2302E+01  0.8644E+01
    -12.761  0.2430E+01  0.8679E+01
    -12.747  0.2506E+01  0.8714E+01
    -12.732  0.2523E+01  0.8750E+01
    -12.718  0.2482E+01  0.8785E+01
    -12.704  0.2392E+01  0.8819E+01
    -12.690  0.2262E+01  0.8851E+01
    -12.676  0.2109E+01  0.8881E+01
    -12.662  0.1943E+01  0.8908E+01
    -12.648  0.1778E+01  0.8933E+01
    -12.633  0.1621E+01  0.8956E+01
    -12.619  0.1476E+01  0.8977E+01
    -12.605  0.1346E+01  0.8996E+01
    -12.591  0.1235E+01  0.9014E+01
    -12.577  0.1142E+01  0.9030E+01
    -12.563  0.1073E+01  0.9045E+01
    -12.549  0.1031E+01  0.9060E+01
    -12.534  0.1023E+01  0.9074E+01
    -12.520  0.1056E+01  0.9089E+01
    -12.506  0.1135E+01  0.9105E+01
    -12.492  0.1264E+01  0.9123E+01
    -12.478  0.1442E+01  0.9143E+01
    -12.464  0.1664E+01  0.9167E+01
    -12.450  0.1918E+01  0.9194E+01
    -12.435  0.2187E+01  0.9225E+01
    -12.421  0.2451E+01  0.9260E+01
    -12.407  0.2685E+01  0.9298E+01
    -12.393  0.2869E+01  0.9338E+01
    -12.379  0.2983E+01  0.9380E+01
    -12.365  0.3016E+01  0.9423E+01
    -12.351  0.2963E+01  0.9465E+01
    -12.336  0.2829E+01  0.9505E+01
    -12.322  0.2628E+01  0.9542E+01
    -12.308  0.2378E+01  0.9576E+01
    -12.294  0.2100E+01  0.9605E+01
    -12.280  0.1816E+01  0.9631E+01
    -12.266  0.1546E+01  0.9653E+01
    -12.252  0.1308E+01  0.9672E+01
    -12.237  0.1113E+01  0.9687E+01
    -12.223  0.9702E+00  0.9701E+01
    -12.209  0.8834E+00  0.9713E+01
    -12.195  0.8539E+00  0.9726E+01
    -12.181  0.8803E+00  0.9738E+01
    -12.167  0.9594E+00  0.9752E+01
    -12.153  0.1086E+01  0.9767E+01
    -12.138  0.1253E+01  0.9785E+01
    -12.124  0.1453E+01  0.9805E+01
    -12.110  0.1674E+01  0.9829E+01
    -12.096  0.1905E+01  0.9856E+01
    -12.082  0.2129E+01  0.9886E+01
    -12.068  0.2333E+01  0.9919E+01
    -12.054  0.2500E+01  0.9954E+01
    -12.039  0.2616E+01  0.9991E+01
    -12.025  0.2673E+01  0.1003E+02
    -12.011  0.2663E+01  0.1007E+02
    -11.997  0.2589E+01  0.1010E+02
    -11.983  0.2455E+01  0.1014E+02
    -11.969  0.2273E+01  0.1017E+02
    -11.955  0.2056E+01  0.1020E+02
    -11.940  0.1822E+01  0.1023E+02
    -11.926  0.1586E+01  0.1025E+02
    -11.912  0.1363E+01  0.1027E+02
    -11.898  0.1165E+01  0.1028E+02
    -11.884  0.1003E+01  0.1030E+02
    -11.870  0.8857E+00  0.1031E+02
    -11.855  0.8184E+00  0.1032E+02
    -11.841  0.8055E+00  0.1033E+02
    -11.827  0.8492E+00  0.1035E+02
    -11.813  0.9487E+00  0.1036E+02
    -11.799  0.1100E+01  0.1037E+02
    -11.785  0.1293E+01  0.1039E+02
    -11.771  0.1514E+01  0.1041E+02
    -11.756  0.1745E+01  0.1044E+02
    -11.742  0.1965E+01  0.1047E+02
    -11.728  0.2151E+01  0.1050E+02
    -11.714  0.2286E+01  0.1053E+02
    -11.700  0.2355E+01  0.1056E+02
    -11.686  0.2353E+01  0.1060E+02
    -11.672  0.2279E+01  0.1063E+02
    -11.657  0.2144E+01  0.1066E+02
    -11.643  0.1962E+01  0.1069E+02
    -11.629  0.1752E+01  0.1071E+02
    -11.615  0.1533E+01  0.1073E+02
    -11.601  0.1324E+01  0.1075E+02
    -11.587  0.1142E+01  0.1077E+02
    -11.573  0.9989E+00  0.1078E+02
    -11.558  0.9040E+00  0.1079E+02
    -11.544  0.8618E+00  0.1081E+02
    -11.530  0.8729E+00  0.1082E+02
    -11.516  0.9345E+00  0.1083E+02
    -11.502  0.1040E+01  0.1085E+02
    -11.488  0.1179E+01  0.1086E+02
    -11.474  0.1340E+01  0.1088E+02
    -11.459  0.1505E+01  0.1090E+02
    -11.445  0.1659E+01  0.1093E+02
    -11.431  0.1783E+01  0.1095E+02
    -11.417  0.1865E+01  0.1098E+02
    -11.403  0.1892E+01  0.1101E+02
    -11.389  0.1861E+01  0.1103E+02
    -11.375  0.1774E+01  0.1106E+02
    -11.360  0.1642E+01  0.1108E+02
    -11.346  0.1479E+01  0.1110E+02
    -11.332  0.1305E+01  0.1112E+02
    -11.318  0.1139E+01  0.1114E+02
    -11.304  0.1000E+01  0.1115E+02
    -11.290  0.9034E+00  0.1116E+02
    -11.276  0.8585E+00  0.1117E+02
    -11.261  0.8691E+00  0.1119E+02
    -11.247  0.9334E+00  0.1120E+02
    -11.233  0.1044E+01  0.1121E+02
    -11.219  0.1189E+01  0.1123E+02
    -11.205  0.1354E+01  0.1125E+02
    -11.191  0.1521E+01  0.1127E+02
    -11.177  0.1676E+01  0.1130E+02
    -11.162  0.1803E+01  0.1132E+02
    -11.148  0.1890E+01  0.1135E+02
    -11.134  0.1931E+01  0.1138E+02
    -11.120  0.1926E+01  0.1140E+02
    -11.106  0.1877E+01  0.1143E+02
    -11.092  0.1796E+01  0.1145E+02
    -11.078  0.1694E+01  0.1148E+02
    -11.063  0.1588E+01  0.1150E+02
    -11.049  0.1491E+01  0.1152E+02
    -11.035  0.1417E+01  0.1154E+02
    -11.021  0.1372E+01  0.1156E+02
    -11.007  0.1360E+01  0.1158E+02
    -10.993  0.1379E+01  0.1160E+02
    -10.979  0.1424E+01  0.1162E+02
    -10.964  0.1484E+01  0.1164E+02