    8    8    1    1
  0.4142730E+02  0.5051000E-09  0.5051000E-09  0.1500000E-08  0.5000000E-15
  1.000000000000000E-004
  CAR 
 PDoS_HSE06                              
     24     33     96
 
  0.0000000E+00  0.0000000E+00  0.0000000E+00  0.3460208E-02
      1        -20.062435   1.000000
      2        -15.361033   1.000000
      3        -15.288298   1.000000
      4        -15.288279   1.000000
      5        -12.959817   1.000000
      6        -12.959794   1.000000
      7        -10.656149   1.000000
      8         -9.825725   1.000000
      9         -4.270435   1.000000
     10         -4.270431   1.000000
     11         -2.291236   0.895470
     12         -1.728136   0.000000
     13         -1.728117   0.000000
     14         -1.376931   0.000000
     15         -1.376920   0.000000
     16         -1.057267   0.000000
     17         -1.057246   0.000000
     18          0.941906   0.000000
     19          1.797302   0.000000
     20          2.438755   0.000000
     21          2.970768   0.000000
     22          4.552930   0.000000
     23          5.071588   0.000000
     24          6.425735   0.000000
     25          7.007295   0.000000
     26          7.007306   0.000000
     27          7.333292   0.000000
     28          8.159041   0.000000
     29          8.159098   0.000000
     30          8.538220   0.000000
     31          9.285786   0.000000
     32          9.320071   0.000000
     33          9.411175   0.000000
     34          9.499353   0.000000
     35          9.639470   0.000000
     36          9.676066   0.000000
     37          9.694334   0.000000
     38          9.697881   0.000000
     39          9.700101   0.000000
     40          9.702268   0.000000
     41          9.716982   0.000000
     42          9.734219   0.000000
     43          9.740888   0.000000
     44          9.751224   0.000000
     45          9.920700   0.000000
     46         10.545385   0.000000
     47         10.586079   0.000000
     48         10.708506   0.000000
     49         14.140412   0.000000
     50         17.587716   0.000000
     51         17.932822   0.000000
     52         18.601552   0.000000
     53         18.790837   0.000000
     54         19.476290   0.000000
     55         19.739136   0.000000
     56         20.055246   0.000000
     57         20.581455   0.000000
     58         20.940101   0.000000
     59         20.966530   0.000000
     60         20.977078   0.000000
     61         20.997777   0.000000
     62         21.193296   0.000000
     63         21.404206   0.000000
     64         21.759097   0.000000
     65         21.974425   0.000000
     66         21.979817   0.000000
     67         22.162518   0.000000
     68         22.466827   0.000000
     69         22.571879   0.000000
     70         22.627549   0.000000
     71         22.654859   0.000000
     72         23.214339   0.000000
     73         23.756023   0.000000
     74         23.787060   0.000000
     75         23.973623   0.000000
     76         24.525921   0.000000
     77         24.555586   0.000000
     78         25.008219   0.000000
     79         25.101547   0.000000
     80         25.167652   0.000000
     81         25.915328   0.000000
     82         25.970906   0.000000
     83         26.908186   0.000000
     84         27.178236   0.000000
     85         27.254999   0.000000
     86         27.484008   0.000000
     87         27.672526   0.000000
     88         27.751779   0.000000
     89         28.067565   0.000000
     90         28.218682   0.000000
     91         29.012120   0.000000
     92         29.086599   0.000000
     93         30.099300   0.000000
     94         30.306389   0.000000
     95         30.641151   0.000000
     96         30.673938   0.000000
 
  0.5882353E-01  0.4798754E-17  0.0000000E+00  0.2076125E-01
      1        -20.044717   1.000000
      2        -15.752193   1.000000
      3        -15.308867   1.000000
      4        -14.912409   1.000000
      5        -12.988638   1.000000
      6        -12.909571   1.000000
      7        -10.568898   1.000000
      8         -9.798317   1.000000
      9         -4.490664   1.000000
     10         -4.454601   1.000000
     11         -2.780741   1.000000
     12         -1.960079   0.000306
     13         -1.563766   0.000000
     14         -1.179990   0.000000
     15         -1.143479   0.000000
     16         -0.773954   0.000000
     17         -0.763651   0.000000
     18          0.968240   0.000000
     19          1.836887   0.000000
     20          2.465588   0.000000
     21          3.060346   0.000000
     22          4.580960   0.000000
     23          5.097216   0.000000
     24          6.282074   0.000000
     25          6.826198   0.000000
     26          6.950615   0.000000
     27          7.241553   0.000000
     28          7.879092   0.000000
     29          8.085900   0.000000
     30          8.558777   0.000000
     31          8.835414   0.000000
     32          9.096916   0.000000
     33          9.211541   0.000000
     34          9.280280   0.000000
     35          9.287724   0.000000
     36          9.288357   0.000000
     37          9.370978   0.000000
     38          9.503080   0.000000
     39          9.675536   0.000000
     40          9.794001   0.000000
     41          9.968791   0.000000
     42         10.147968   0.000000
     43         10.155686   0.000000
     44         10.255570   0.000000
     45         10.304443   0.000000
     46         10.419553   0.000000
     47         10.669103   0.000000
     48         10.934373   0.000000
     49         14.412733   0.000000
     50         17.439449   0.000000
     51         17.894300   0.000000
     52         17.965305   0.000000
     53         19.017621   0.000000
     54         19.359979   0.000000
     55         19.955225   0.000000
     56         21.104547   0.000000
     57         21.351886   0.000000
     58         21.355514   0.000000
     59         21.368278   0.000000
     60         21.428890   0.000000
     61         21.517746   0.000000
     62         21.638308   0.000000
     63         21.831954   0.000000
     64         21.879098   0.000000
     65         21.961758   0.000000
     66         22.085894   0.000000
     67         22.224352   0.000000
     68         22.479372   0.000000
     69         22.542298   0.000000
     70         22.971607   0.000000
     71         23.060157   0.000000
     72         23.156085   0.000000
     73         23.159303   0.000000
     74         24.336567   0.000000
     75         24.387813   0.000000
     76         24.419279   0.000000
     77         24.500211   0.000000
     78         24.718966   0.000000
     79         24.815714   0.000000
     80         25.161908   0.000000
     81         26.046932   0.000000
     82         26.154350   0.000000
     83         26.835648   0.000000
     84         27.199581   0.000000
     85         27.291585   0.000000
     86         27.546368   0.000000
     87         28.075958   0.000000
     88         28.155746   0.000000
     89         28.393830   0.000000
     90         28.400374   0.000000
     91         28.925169   0.000000
     92         29.131368   0.000000
     93         29.572894   0.000000
     94         29.580710   0.000000
     95         30.200591   0.000000
     96         30.254314   0.000000
 
  0.1176471E+00  0.1218086E-17  0.0000000E+00  0.2076125E-01
      1        -19.991775   1.000000
      2        -16.178432   1.000000
      3        -15.364407   1.000000
      4        -14.547523   1.000000
      5        -13.034948   1.000000
      6        -12.765839   1.000000
      7        -10.337776   1.000000
      8         -9.716257   1.000000
      9         -5.008230   1.000000
     10         -4.893288   1.000000
     11         -3.511408   1.000000
     12         -2.322018   0.954690
     13         -1.597060   0.000000
     14         -0.700298   0.000000
     15         -0.587005   0.000000
     16         -0.258312   0.000000
     17         -0.081743   0.000000
     18          1.047228   0.000000
     19          1.947150   0.000000
     20          2.546074   0.000000
     21          3.319957   0.000000
     22          4.665089   0.000000
     23          5.173548   0.000000
     24          5.829878   0.000000
     25          6.384436   0.000000
     26          6.794459   0.000000
     27          7.024730   0.000000
     28          7.411087   0.000000
     29          7.900848   0.000000
     30          7.998602   0.000000
     31          8.422016   0.000000
     32          8.637393   0.000000
     33          8.903015   0.000000
     34          8.912114   0.000000
     35          8.914220   0.000000
     36          9.086231   0.000000
     37          9.257210   0.000000
     38          9.454112   0.000000
     39          9.772264   0.000000
     40         10.040559   0.000000
     41         10.096390   0.000000
     42         10.292505   0.000000
     43         10.418784   0.000000
     44         10.442305   0.000000
     45         10.686397   0.000000
     46         10.810898   0.000000
     47         10.857299   0.000000
     48         11.376880   0.000000
     49         14.577696   0.000000
     50         18.052753   0.000000
     51         19.258224   0.000000
     52         19.675504   0.000000
     53         19.874726   0.000000
     54         20.897351   0.000000
     55         21.057124   0.000000
     56         21.104215   0.000000
     57         21.182739   0.000000
     58         21.381417   0.000000
     59         21.677188   0.000000
     60         21.733842   0.000000
     61         21.793295   0.000000
     62         21.855310   0.000000
     63         21.942860   0.000000
     64         22.110657   0.000000
     65         22.195000   0.000000
     66         22.311713   0.000000
     67         22.448841   0.000000
     68         22.573229   0.000000
     69         22.795633   0.000000
     70         22.838575   0.000000
     71         23.158806   0.000000
     72         23.382753   0.000000
     73         23.503963   0.000000
     74         23.596285   0.000000
     75         24.139819   0.000000
     76         24.551018   0.000000
     77         24.685102   0.000000
     78         24.895586   0.000000
     79         25.020102   0.000000
     80         25.239762   0.000000
     81         25.852933   0.000000
     82         26.321914   0.000000
     83         26.600309   0.000000
     84         26.666532   0.000000
     85         26.794478   0.000000
     86         26.980283   0.000000
     87         27.032547   0.000000
     88         27.060237   0.000000
     89         27.803996   0.000000
     90         27.849087   0.000000
     91         28.492815   0.000000
     92         29.278153   0.000000
     93         29.867283   0.000000
     94         30.027909   0.000000
     95         30.259157   0.000000
     96         30.274971   0.000000
 
  0.1764706E+00  0.2813212E-16  0.0000000E+00  0.2076125E-01
      1        -19.904385   1.000000
      2        -16.597682   1.000000
      3        -15.440732   1.000000
      4        -14.287338   1.000000
      5        -12.999837   1.000000
      6        -12.545582   1.000000
      7        -10.030344   1.000000
      8         -9.580156   1.000000
      9         -5.636382   1.000000
     10         -5.418768   1.000000
     11         -4.247280   1.000000
     12         -2.658523   1.000000
     13         -1.722910   0.000000
     14         -0.096212   0.000000
     15          0.103499   0.000000
     16          0.333373   0.000000
     17          0.675859   0.000000
     18          1.178860   0.000000
     19          2.114522   0.000000
     20          2.680158   0.000000
     21          3.718057   0.000000
     22          4.805163   0.000000
     23          5.128365   0.000000
     24          5.301753   0.000000
     25          5.863748   0.000000
     26          6.566014   0.000000
     27          6.606059   0.000000
     28          7.121178   0.000000
     29          7.221030   0.000000
     30          7.665268   0.000000
     31          7.706812   0.000000
     32          8.424980   0.000000
     33          8.564786   0.000000
     34          8.589304   0.000000
     35          8.779037   0.000000
     36          8.879701   0.000000
     37          9.007181   0.000000
     38          9.578762   0.000000
     39          9.698907   0.000000
     40          9.889467   0.000000
     41          9.937707   0.000000
     42         10.051158   0.000000
     43         10.691252   0.000000
     44         10.711665   0.000000
     45         10.775604   0.000000
     46         10.804706   0.000000
     47         11.197538   0.000000
     48         11.365260   0.000000
     49         14.539648   0.000000
     50         19.062371   0.000000
     51         19.483536   0.000000
     52         19.758683   0.000000
     53         20.277903   0.000000
     54         20.344306   0.000000
     55         20.488485   0.000000
     56         20.603044   0.000000
     57         21.207033   0.000000
     58         21.620156   0.000000
     59         21.654523   0.000000
     60         21.952656   0.000000
     61         22.016746   0.000000
     62         22.126807   0.000000
     63         22.179679   0.000000
     64         22.195408   0.000000
     65         22.485075   0.000000
     66         22.636059   0.000000
     67         22.827443   0.000000
     68         22.874322   0.000000
     69         22.943694   0.000000
     70         23.181229   0.000000
     71         23.201000   0.000000
     72         23.382310   0.000000
     73         23.415521   0.000000
     74         23.416820   0.000000
     75         24.037396   0.000000
     76         24.132373   0.000000
     77         24.659718   0.000000
     78         24.679032   0.000000
     79         25.057214   0.000000
     80         25.427541   0.000000
     81         25.594002   0.000000
     82         25.775816   0.000000
     83         26.166018   0.000000
     84         26.324762   0.000000
     85         26.827168   0.000000
     86         27.091151   0.000000
     87         27.122014   0.000000
     88         27.565510   0.000000
     89         27.611611   0.000000
     90         27.626360   0.000000
     91         28.237427   0.000000
     92         28.943109   0.000000
     93         29.003958   0.000000
     94         29.085506   0.000000
     95         29.451071   0.000000
     96         29.862554   0.000000
 
  0.2352941E+00  0.2436172E-17  0.0000000E+00  0.2076125E-01
      1        -19.784125   1.000000
      2        -17.002491   1.000000
      3        -15.522958   1.000000
      4        -14.186929   1.000000
      5        -12.798187   1.000000
      6        -12.269340   1.000000
      7         -9.723688   1.000000
      8         -9.391370   1.000000
      9         -6.282089   1.000000
     10         -5.922589   1.000000
     11         -4.954557   1.000000
     12         -2.946801   1.000000
     13         -1.868951   0.000001
     14          0.544002   0.000000
     15          0.832106   0.000000
     16          0.976815   0.000000
     17          1.363223   0.000000
     18          1.431140   0.000000
     19          2.334635   0.000000
     20          2.867715   0.000000
     21          4.197925   0.000000
     22          4.353274   0.000000
     23          4.998944   0.000000
     24          5.256482   0.000000
     25          5.508151   0.000000
     26          6.136467   0.000000
     27          6.285804   0.000000
     28          6.494000   0.000000
     29          6.845289   0.000000
     30          7.102937   0.000000
     31          7.426289   0.000000
     32          7.809966   0.000000
     33          8.290852   0.000000
     34          8.319740   0.000000
     35          8.681806   0.000000
     36          8.779919   0.000000
     37          8.937816   0.000000
     38          8.979857   0.000000
     39          9.354913   0.000000
     40          9.781412   0.000000
     41         10.137459   0.000000
     42         10.164153   0.000000
     43         10.528438   0.000000
     44         10.806942   0.000000
     45         10.847746   0.000000
     46         11.205156   0.000000
     47         11.226881   0.000000
     48         11.505366   0.000000
     49         18.657674   0.000000
     50         18.729065   0.000000
     51         18.834574   0.000000
     52         19.175968   0.000000
     53         20.200444   0.000000
     54         20.885351   0.000000
     55         21.246736   0.000000
     56         21.261102   0.000000
     57         21.345738   0.000000
     58         21.572505   0.000000
     59         21.716990   0.000000
     60         21.891003   0.000000
     61         22.000479   0.000000
     62         22.302231   0.000000
     63         22.308741   0.000000
     64         22.622434   0.000000
     65         22.752472   0.000000
     66         22.818185   0.000000
     67         22.897994   0.000000
     68         23.033706   0.000000
     69         23.221138   0.000000
     70         23.553120   0.000000
     71         23.744591   0.000000
     72         23.773867   0.000000
     73         24.101690   0.000000
     74         24.165817   0.000000
     75         24.404887   0.000000
     76         24.505444   0.000000
     77         24.632696   0.000000
     78         24.731210   0.000000
     79         24.779582   0.000000
     80         25.134611   0.000000
     81         25.522099   0.000000
     82         25.653062   0.000000
     83         26.005371   0.000000
     84         26.047049   0.000000
     85         26.052269   0.000000
     86         26.433885   0.000000
     87         26.724514   0.000000
     88         27.235699   0.000000
     89         27.274808   0.000000
     90         27.380172   0.000000
     91         28.304258   0.000000
     92         28.325643   0.000000
     93         28.751706   0.000000
     94         29.016060   0.000000
     95         29.132424   0.000000
     96         29.839257   0.000000
 
  0.2941176E+00  0.3628909E-16  0.0000000E+00  0.2076125E-01
      1        -19.634102   1.000000
      2        -17.385410   1.000000
      3        -15.599431   1.000000
      4        -14.204014   1.000000
      5        -12.459485   1.000000
      6        -11.959521   1.000000
      7         -9.502491   1.000000
      8         -9.152839   1.000000
      9         -6.897851   1.000000
     10         -6.323329   1.000000
     11         -5.617582   1.000000
     12         -3.180596   1.000000
     13         -2.006248   0.002768
     14          1.171619   0.000000
     15          1.549136   0.000000
     16          1.601563   0.000000
     17          1.663525   0.000000
     18          2.152282   0.000000
     19          2.618057   0.000000
     20          3.108436   0.000000
     21          3.608588   0.000000
     22          4.680010   0.000000
     23          4.683412   0.000000
     24          5.232684   0.000000
     25          5.673370   0.000000
     26          5.728247   0.000000
     27          5.821542   0.000000
     28          5.964837   0.000000
     29          6.283259   0.000000
     30          6.861646   0.000000
     31          7.100444   0.000000
     32          7.214401   0.000000
     33          8.058740   0.000000
     34          8.104019   0.000000
     35          8.306954   0.000000
     36          8.499693   0.000000
     37          8.589836   0.000000
     38          8.802542   0.000000
     39          9.142541   0.000000
     40          9.992473   0.000000
     41         10.264411   0.000000
     42         10.302330   0.000000
     43         10.452746   0.000000
     44         10.635498   0.000000
     45         10.854663   0.000000
     46         11.363717   0.000000
     47         11.663149   0.000000
     48         11.859430   0.000000
     49         18.976395   0.000000
     50         19.054820   0.000000
     51         19.902935   0.000000
     52         20.534779   0.000000
     53         20.558791   0.000000
     54         21.101673   0.000000
     55         21.430200   0.000000
     56         21.644553   0.000000
     57         21.718223   0.000000
     58         21.982261   0.000000
     59         22.056806   0.000000
     60         22.059044   0.000000
     61         22.297820   0.000000
     62         22.598369   0.000000
     63         22.604197   0.000000
     64         22.933896   0.000000
     65         22.964505   0.000000
     66         23.009268   0.000000
     67         23.016975   0.000000
     68         23.053138   0.000000
     69         23.214904   0.000000
     70         23.278752   0.000000
     71         23.361420   0.000000
     72         23.812223   0.000000
     73         24.134013   0.000000
     74         24.150960   0.000000
     75         24.170307   0.000000
     76         24.196792   0.000000
     77         24.233632   0.000000
     78         24.259597   0.000000
     79         24.916183   0.000000
     80         25.106478   0.000000
     81         25.533008   0.000000
     82         25.744437   0.000000
     83         25.899587   0.000000
     84         25.963168   0.000000
     85         26.369607   0.000000
     86         26.602473   0.000000
     87         26.764790   0.000000
     88         27.067711   0.000000
     89         27.078206   0.000000
     90         27.355518   0.000000
     91         27.440853   0.000000
     92         27.537108   0.000000
     93         27.968137   0.000000
     94         29.107096   0.000000
     95         29.151024   0.000000
     96         30.034479   0.000000
 
  0.3529412E+00  0.2447094E-16  0.0000000E+00  0.2076125E-01
      1        -19.461016   1.000000
      2        -17.736250   1.000000
      3        -15.662268   1.000000
      4        -14.260070   1.000000
      5        -12.067526   1.000000
      6        -11.644531   1.000000
      7         -9.442958   1.000000
      8         -8.871670   1.000000
      9         -7.446069   1.000000
     10         -6.558272   1.000000
     11         -6.222061   1.000000
     12         -3.357314   1.000000
     13         -2.119015   0.119135
     14          1.735456   0.000000
     15          1.905327   0.000000
     16          2.217100   0.000000
     17          2.387749   0.000000
     18          2.757604   0.000000
     19          2.975202   0.000000
     20          3.032265   0.000000
     21          3.400982   0.000000
     22          4.115918   0.000000
     23          5.074136   0.000000
     24          5.184870   0.000000
     25          5.239921   0.000000
     26          5.498727   0.000000
     27          5.614672   0.000000
     28          5.681781   0.000000
     29          6.000189   0.000000
     30          6.332636   0.000000
     31          6.738568   0.000000
     32          7.047505   0.000000
     33          7.689036   0.000000
     34          7.883057   0.000000
     35          7.942165   0.000000
     36          8.197056   0.000000
     37          8.414527   0.000000
     38          8.443759   0.000000
     39          9.373395   0.000000
     40         10.095553   0.000000
     41         10.244481   0.000000
     42         10.473286   0.000000
     43         10.481125   0.000000
     44         10.707646   0.000000
     45         10.940931   0.000000
     46         11.475027   0.000000
     47         11.822017   0.000000
     48         12.101753   0.000000
     49         19.703185   0.000000
     50         19.879873   0.000000
     51         20.346069   0.000000
     52         20.759966   0.000000
     53         20.972060   0.000000
     54         21.059540   0.000000
     55         21.504416   0.000000
     56         21.646738   0.000000
     57         21.692582   0.000000
     58         21.821408   0.000000
     59         21.895251   0.000000
     60         22.063387   0.000000
     61         22.483282   0.000000
     62         22.838421   0.000000
     63         22.964121   0.000000
     64         22.987366   0.000000
     65         23.256168   0.000000
     66         23.283321   0.000000
     67         23.296450   0.000000
     68         23.361911   0.000000
     69         23.397074   0.000000
     70         23.655789   0.000000
     71         23.683644   0.000000
     72         24.096484   0.000000
     73         24.188434   0.000000
     74         24.189543   0.000000
     75         24.223478   0.000000
     76         24.471876   0.000000
     77         24.564278   0.000000
     78         24.869342   0.000000
     79         24.894706   0.000000
     80         24.927414   0.000000
     81         24.992206   0.000000
     82         25.048867   0.000000
     83         25.131349   0.000000
     84         25.192862   0.000000
     85         25.387214   0.000000
     86         25.505940   0.000000
     87         25.596123   0.000000
     88         25.607821   0.000000
     89         25.825095   0.000000
     90         25.988396   0.000000
     91         26.437890   0.000000
     92         27.221536   0.000000
     93         27.548585   0.000000
     94         27.647680   0.000000
     95         27.882624   0.000000
     96         28.597715   0.000000
 
  0.4117647E+00  0.7479884E-16  0.0000000E+00  0.2076125E-01
      1        -19.281824   1.000000
      2        -18.035436   1.000000
      3        -15.706491   1.000000
      4        -14.311607   1.000000
      5        -11.697279   1.000000
      6        -11.368000   1.000000
      7         -9.544158   1.000000
      8         -8.568603   1.000000
      9         -7.879382   1.000000
     10         -6.742819   1.000000
     11         -6.632287   1.000000
     12         -3.475649   1.000000
     13         -2.198211   0.476345
     14          2.124582   0.000000
     15          2.285312   0.000000
     16          2.569801   0.000000
     17          2.787562   0.000000
     18          3.143811   0.000000
     19          3.193234   0.000000
     20          3.570867   0.000000
     21          3.600181   0.000000
     22          3.765024   0.000000
     23          4.616371   0.000000
     24          4.840720   0.000000
     25          5.131615   0.000000
     26          5.237236   0.000000
     27          5.265606   0.000000
     28          5.535286   0.000000
     29          5.784664   0.000000
     30          6.300172   0.000000
     31          6.679495   0.000000
     32          6.934125   0.000000
     33          7.129804   0.000000
     34          7.699564   0.000000
     35          7.776380   0.000000
     36          7.834232   0.000000
     37          8.301891   0.000000
     38          8.345043   0.000000
     39          9.620516   0.000000
     40         10.080985   0.000000
     41         10.382737   0.000000
     42         10.523788   0.000000
     43         10.696635   0.000000
     44         10.859277   0.000000
     45         10.954441   0.000000
     46         11.737174   0.000000
     47         11.845774   0.000000
     48         12.015640   0.000000
     49         19.834600   0.000000
     50         20.208692   0.000000
     51         20.999927   0.000000
     52         21.071474   0.000000
     53         21.115945   0.000000
     54         21.131837   0.000000
     55         21.340788   0.000000
     56         21.643317   0.000000
     57         22.262271   0.000000
     58         22.319187   0.000000
     59         22.443954   0.000000
     60         22.483321   0.000000
     61         22.580482   0.000000
     62         22.610896   0.000000
     63         22.619287   0.000000
     64         22.841590   0.000000
     65         22.849398   0.000000
     66         22.863029   0.000000
     67         23.233628   0.000000
     68         23.285328   0.000000
     69         23.431590   0.000000
     70         23.481115   0.000000
     71         23.608057   0.000000
     72         23.615363   0.000000
     73         23.634141   0.000000
     74         23.962497   0.000000
     75         24.150485   0.000000
     76         24.155836   0.000000
     77         24.165473   0.000000
     78         24.539486   0.000000
     79         24.552862   0.000000
     80         24.653440   0.000000
     81         24.791146   0.000000
     82         24.816191   0.000000
     83         24.887344   0.000000
     84         24.895097   0.000000
     85         25.055943   0.000000
     86         25.245484   0.000000
     87         25.648871   0.000000
     88         26.130781   0.000000
     89         26.160031   0.000000
     90         26.400536   0.000000
     91         26.438901   0.000000
     92         27.017326   0.000000
     93         27.212752   0.000000
     94         27.264515   0.000000
     95         28.195698   0.000000
     96         30.076864   0.000000
 
  0.4705882E+00  0.4872344E-17  0.0000000E+00  0.2076125E-01
      1        -19.145152   1.000000
      2        -18.232547   1.000000
      3        -15.729259   1.000000
      4        -14.340606   1.000000
      5        -11.448382   1.000000
      6        -11.196692   1.000000
      7         -9.680025   1.000000
      8         -8.318853   1.000000
      9         -8.129410   1.000000
     10         -7.102025   1.000000
     11         -6.630474   1.000000
     12         -3.534961   1.000000
     13         -2.238909   0.697147
     14          2.147006   0.000000
     15          2.536240   0.000000
     16          2.741134   0.000000
     17          3.111604   0.000000
     18          3.159194   0.000000
     19          3.619514   0.000000
     20          3.923629   0.000000
     21          4.045687   0.000000
     22          4.112137   0.000000