Lattice                                 
           1
     4.200223    2.425000    0.000000
    -4.200223    2.425000    0.000000
     0.000000    0.000000   15.000000
   B    C 
     4    11
Direct configuration=     1
   0.00415361  0.00267210  0.12034134
   0.35695335  0.00285503  0.09748893
   0.00423858  0.35550699  0.09749256
   0.65142295  0.65006557  0.09747688
   0.32808646  0.32671938  0.10030508
   0.68027775  0.00278085  0.10027562
   0.00416530  0.67883808  0.10026559
   0.99999933  0.49999967  0.33373333
   0.16666633  0.33333267  0.33373333
   0.99999933  0.99999967  0.33373333
   0.16666633  0.83333267  0.33373333
   0.49999933  0.49999967  0.33373333
   0.66666633  0.33333267  0.33373333
   0.49999933  0.99999967  0.33373333
   0.66666633  0.83333267  0.33373333
Direct configuration=     2
   0.00418020  0.00275159  0.11920304
   0.35581919  0.00303458  0.09783927
   0.00395815  0.35414741  0.09784135
   0.65277579  0.65115696  0.09783071
   0.32463173  0.32291912  0.10029666
   0.68403936  0.00310730  0.10027524
   0.00388382  0.68231488  0.10026797
   0.00012687  0.49997478  0.33374252
   0.16687084  0.33394289  0.33380240
   0.99999926  0.99999371  0.33363336
   0.16706466  0.83312682  0.33380529
   0.50004038  0.50016461  0.33374540
   0.66666629  0.33333787  0.33368532
   0.49984955  0.99987119  0.33374205
   0.66605458  0.83292362  0.33380207
Direct configuration=     3
   0.00416609  0.00270940  0.11980718
   0.35642113  0.00293928  0.09765333
   0.00410698  0.35486899  0.09765623
   0.65205779  0.65057772  0.09764292
   0.32646529  0.32493607  0.10030113
   0.68204292  0.00293404  0.10027544
   0.00403321  0.68046961  0.10026671
   0.00005918  0.49998799  0.33373765
   0.16676230  0.33361902  0.33376574
   0.99999930  0.99999687  0.33368642
   0.16685325  0.83323607  0.33376710
   0.50001859  0.50007707  0.33373900
   0.66666631  0.33333511  0.33371080
   0.49992905  0.99993938  0.33373742
   0.66637926  0.83314072  0.33376559
Direct configuration=     4
   0.00417996  0.00276501  0.11887376
   0.35686453  0.00305700  0.09796348
   0.00390754  0.35516886  0.09796483
   0.65177250  0.65010429  0.09795640
   0.32657550  0.32482747  0.10026285
   0.68213076  0.00312827  0.10024495
   0.00385225  0.68037757  0.10023832
  -0.00007967  0.50001100  0.33375786
   0.16662140  0.33315124  0.33381034
   0.99999996  0.00000277  0.33363074
   0.16653893  0.83338437  0.33381384
   0.49998444  0.49990723  0.33376133
   0.66666941  0.33333224  0.33366693
   0.50008836  0.00007996  0.33375721
   0.66685479  0.83347007  0.33380984
Direct configuration=     5
   0.00419975  0.00284430  0.11754262
   0.35749685  0.00322487  0.09840576
   0.00362311  0.35559649  0.09840492
   0.65136566  0.64942915  0.09840346
   0.32673267  0.32467259  0.10020827
   0.68225603  0.00340525  0.10020146
   0.00359419  0.68024631  0.10019784
  -0.00027769  0.50004381  0.33378667
   0.16642047  0.33248414  0.33387393
   0.00000091  0.00001118  0.33355133
   0.16609067  0.83359585  0.33388050
   0.49993574  0.49966504  0.33379318
   0.66667383  0.33332815  0.33360437
   0.50031555  0.00028045  0.33378542
   0.66753293  0.83393975  0.33387294
Direct configuration=     6
   0.00420208  0.00285447  0.11729511
   0.35760588  0.00324444  0.09847775
   0.00358809  0.35568199  0.09847656
   0.65128482  0.64931427  0.09847618
   0.32679971  0.32470573  0.10020816
   0.68221916  0.00343309  0.10020323
   0.00356569  0.68018318  0.10020007
  -0.00024428  0.50004037  0.33379253
   0.16643832  0.33256402  0.33388221
   0.00000223  0.00001065  0.33354399
   0.16614998  0.83357689  0.33388917
   0.49994283  0.49970316  0.33379941
   0.66667331  0.33332898  0.33359599
   0.50028088  0.00024824  0.33379117
   0.66745196  0.83387785  0.33388113
Direct configuration=     7
   0.00420909  0.00288496  0.11655258
   0.35793298  0.00330315  0.09869372
   0.00348304  0.35593851  0.09869150
   0.65104230  0.64896961  0.09869436
   0.32700082  0.32480514  0.10020783
   0.68210856  0.00351661  0.10020854
   0.00348021  0.67999380  0.10020677
  -0.00014405  0.50003007  0.33381008
   0.16649186  0.33280365  0.33390702
   0.00000620  0.00000906  0.33352198
   0.16632791  0.83352000  0.33391517
   0.49996411  0.49981755  0.33381811
   0.66667175  0.33333147  0.33357086
   0.50017685  0.00015161  0.33380841
   0.66720905  0.83369215  0.33390572
Direct configuration=     8
   0.00422310  0.00294594  0.11506753
   0.35858719  0.00342056  0.09912566
   0.00327294  0.35645154  0.09912137
   0.65055724  0.64828030  0.09913072
   0.32740304  0.32500396  0.10020715
   0.68188735  0.00368366  0.10021917
   0.00330924  0.67961503  0.10022018
   0.00005641  0.50000945  0.33384518
   0.16659895  0.33328293  0.33395666
   0.00001413  0.00000588  0.33347797
   0.16668377  0.83340623  0.33396718
   0.50000666  0.50004631  0.33385551
   0.66666862  0.33333645  0.33352059
   0.49996879 -0.00004165  0.33384291
   0.66672323  0.83332075  0.33395489
Direct configuration=     9
   0.00425114  0.00306790  0.11209742
   0.35989560  0.00365538  0.09998953
   0.00285274  0.35747761  0.09998112
   0.64958714  0.64690167  0.10000344
   0.32820748  0.32540159  0.10020581
   0.68144494  0.00401775  0.10024043
   0.00296730  0.67885750  0.10024698
   0.00045734  0.49996822  0.33391539
   0.16681312  0.33424147  0.33405593
   0.00003000 -0.00000048  0.33338993
   0.16739549  0.83317868  0.33407120
   0.50009177  0.50050385  0.33393031
   0.66666236  0.33334642  0.33342004
   0.49955268 -0.00042818  0.33391190
   0.66575158  0.83257795  0.33405323
Direct configuration=    10
   0.00423343  0.00299086  0.11397349
   0.35906914  0.00350705  0.09944386
   0.00311816  0.35682949  0.09943806
   0.65019990  0.64777248  0.09945219
   0.32769935  0.32515043  0.10020666
   0.68172439  0.00380672  0.10022700
   0.00318328  0.67933599  0.10023005
   0.00020409  0.49999427  0.33387104
   0.16667784  0.33363601  0.33399323
   0.00001997  0.00000354  0.33344554
   0.16694593  0.83332241  0.33400550
   0.50003801  0.50021485  0.33388306
   0.66666632  0.33334012  0.33348355
   0.49981552 -0.00018403  0.33386832
   0.66636532  0.83304714  0.33399111
Direct configuration=    11
   0.00423084  0.00298266  0.11342286
   0.35906590  0.00347705  0.09952982
   0.00315784  0.35686530  0.09952388
   0.65017117  0.64777538  0.09953851
   0.32772547  0.32525340  0.10028064
   0.68162424  0.00372390  0.10030339
   0.00324567  0.67931120  0.10030680
   0.00013458  0.50000530  0.33388252
   0.16673015  0.33363586  0.33398964
   0.00001236  0.00000292  0.33347801
   0.16690876  0.83328011  0.33400157
   0.50001974  0.50013835  0.33389408
   0.66667324  0.33334107  0.33349378
   0.49988495 -0.00012076  0.33387967
   0.66637575  0.83309558  0.33398750
Direct configuration=    12
   0.00422308  0.00295807  0.11177096
   0.35905617  0.00338702  0.09978769
   0.00327689  0.35697273  0.09978134
   0.65008496  0.64778409  0.09979749
   0.32780382  0.32556233  0.10050259
   0.68132381  0.00347544  0.10053255
   0.00343281  0.67923680  0.10053703
  -0.00007395  0.50003839  0.33391694
   0.16688709  0.33363542  0.33397888
  -0.00001048  0.00000106  0.33357541
   0.16679723  0.83315320  0.33398978
   0.49996493  0.49990888  0.33392715
   0.66669402  0.33334391  0.33352447
   0.50009323  0.00006907  0.33391373
   0.66640705  0.83324091  0.33397667
Direct configuration=    13
   0.00420755  0.00290889  0.10846716
   0.35903672  0.00320698  0.10030342
   0.00351498  0.35718758  0.10029625
   0.64991255  0.64780151  0.10031545
   0.32796051  0.32618019  0.10094649
   0.68072294  0.00297852  0.10099087
   0.00380711  0.67908802  0.10099751
  -0.00049101  0.50010457  0.33398578
   0.16720097  0.33363455  0.33395737
  -0.00005615 -0.00000265  0.33377021
   0.16657419  0.83289938  0.33396620
   0.49985531  0.49944992  0.33399327
   0.66673557  0.33334959  0.33358584
   0.50050980  0.00044871  0.33398184
   0.66646964  0.83353158  0.33395501
Direct configuration=    14
   0.00420579  0.00289423  0.10748661
   0.35901195  0.00313270  0.10043666
   0.00363703  0.35724582  0.10043005
   0.64983329  0.64783910  0.10044807
   0.32790397  0.32626757  0.10109504
   0.68063299  0.00285334  0.10114081
   0.00392485  0.67911110  0.10114736
  -0.00015823  0.50000390  0.33398818
   0.16681664  0.33345930  0.33395947
   0.00000848  0.00000929  0.33383623
   0.16668155  0.83322088  0.33396696
   0.50002199  0.49984836  0.33399404
   0.66668693  0.33334411  0.33364172
   0.50017558  0.00018004  0.33398415
   0.66657786  0.83335759  0.33395733
Direct configuration=    15
   0.00420455  0.00288398  0.10680072
   0.35899462  0.00308074  0.10052985
   0.00372241  0.35728655  0.10052364
   0.64977785  0.64786540  0.10054084
   0.32786442  0.32632868  0.10119895
   0.68057007  0.00276578  0.10124568
   0.00400720  0.67912724  0.10125219
   0.00007455  0.49993349  0.33398985
   0.16654781  0.33333671  0.33396094
   0.00005368  0.00001765  0.33388242
   0.16675665  0.83344577  0.33396748
   0.50013857  0.50012707  0.33399457
   0.66665291  0.33334029  0.33368080
   0.49994179 -0.00000790  0.33398578
   0.66665356  0.83323588  0.33395895
Direct configuration=    16
   0.00420319  0.00287542  0.10655035
   0.35902927  0.00305890  0.10056649
   0.00377283  0.35733634  0.10056115
   0.64969306  0.64784387  0.10057612
   0.32780171  0.32625824  0.10123005
   0.68063634  0.00280401  0.10127393
   0.00400048  0.67915896  0.10127968
   0.00011308  0.49998807  0.33397421
   0.16661528  0.33336590  0.33397522
   0.00002621  0.00001243  0.33389577
   0.16676764  0.83341093  0.33398106
   0.50005176  0.50012992  0.33397814
   0.66668264  0.33334600  0.33372660
   0.49990779 -0.00007741  0.33397039
   0.66665938  0.83325574  0.33397350
Direct configuration=    17
   0.00420094  0.00286125  0.10613579
   0.35908664  0.00302274  0.10062715
   0.00385632  0.35741877  0.10062325
   0.64955267  0.64780823  0.10063453
   0.32769787  0.32614161  0.10128155
   0.68074607  0.00286731  0.10132069
   0.00398933  0.67921148  0.10132521
   0.00017689  0.50007844  0.33394832
   0.16672699  0.33341423  0.33399887
  -0.00001928  0.00000378  0.33391788
   0.16678583  0.83335326  0.33400354
   0.49990803  0.50013464  0.33395095
   0.66673186  0.33335547  0.33380242
   0.49985149 -0.00019250  0.33394493
   0.66666902  0.83328862  0.33399759
Direct configuration=    18
   0.00418620  0.00282114  0.10581981
   0.35917581  0.00300120  0.10068587
   0.00391130  0.35752450  0.10068353
   0.64940050  0.64773807  0.10069049
   0.32768539  0.32606995  0.10130206
   0.68082609  0.00296861  0.10133435
   0.00393783  0.67920386  0.10133732
   0.00006778  0.50005282  0.33393172
   0.16674484  0.33342859  0.33401956
   0.00001543  0.00001107  0.33393666
   0.16672038  0.83329514  0.33402329
   0.49997732  0.50002605  0.33393329
   0.66669447  0.33334909  0.33386713
   0.50000362 -0.00003968  0.33392882
   0.66661373  0.83331692  0.33401876
Direct configuration=    19
   0.00418020  0.00280483  0.10569132
   0.35921207  0.00299244  0.10070975
   0.00393366  0.35756750  0.10070805
   0.64933862  0.64770954  0.10071325
   0.32768032  0.32604082  0.10131041
   0.68085863  0.00300981  0.10133991
   0.00391688  0.67920076  0.10134224
   0.00002341  0.50004240  0.33392496
   0.16675210  0.33343443  0.33402798
   0.00002954  0.00001404  0.33394430
   0.16669376  0.83327150  0.33403132
   0.50000549  0.49998189  0.33392611
   0.66667927  0.33334650  0.33389345
   0.50006548  0.00002247  0.33392227
   0.66659124  0.83332842  0.33402737
Direct configuration=    20
   0.00415990  0.00275664  0.10551243
   0.35926652  0.00299593  0.10075591
   0.00393737  0.35762517  0.10075527
   0.64927225  0.64766333  0.10075725
   0.32776005  0.32606447  0.10130201
   0.68085332  0.00307677  0.10132522
   0.00386537  0.67914000  0.10132621
  -0.00000893  0.49996638  0.33393599
   0.16667763  0.33340621  0.33403166
   0.00003347  0.00001536  0.33396178
   0.16673994  0.83334625  0.33403483
   0.50008553  0.50002476  0.33393695
   0.66667704  0.33334584  0.33391203
   0.50002539  0.00005729  0.33393374
   0.66661582  0.83328294  0.33403138
Direct configuration=    21
   0.00414620  0.00272413  0.10539175
   0.35930326  0.00299828  0.10078706
   0.00393987  0.35766407  0.10078712
   0.64922747  0.64763216  0.10078693
   0.32781384  0.32608042  0.10129635
   0.68084975  0.00312195  0.10131531
   0.00383062  0.67909901  0.10131540
  -0.00003074  0.49991510  0.33394343
   0.16662738  0.33338717  0.33403414
   0.00003612  0.00001626  0.33397358
   0.16677109  0.83339668  0.33403720
   0.50013952  0.50005368  0.33394427
   0.66667553  0.33334540  0.33392456
   0.49999835  0.00008078  0.33394148
   0.66663240  0.83325225  0.33403408
Direct configuration=    22
   0.00413139  0.00268910  0.10521213
   0.35932275  0.00302057  0.10083639
   0.00392287  0.35766756  0.10083747
   0.64922095  0.64761884  0.10083398
   0.32787545  0.32609918  0.10127892
   0.68084254  0.00316957  0.10129051
   0.00378832  0.67905112  0.10128908
   0.00002990  0.49996518  0.33396992
   0.16665946  0.33339099  0.33403421
   0.00001852  0.00001280  0.33399213
   0.16677625  0.83338725  0.33403747
   0.50006887  0.50007752  0.33397101
   0.66669614  0.33334947  0.33392660
   0.49995434  0.00000013  0.33396840
   0.66665292  0.83326804  0.33403446
Direct configuration=    23
   0.00411785  0.00265708  0.10504800
   0.35934057  0.00304094  0.10088146
   0.00390733  0.35767075  0.10088348
   0.64921499  0.64760667  0.10087697
   0.32793175  0.32611633  0.10126300
   0.68083595  0.00321309  0.10126785
   0.00374968  0.67900736  0.10126502
   0.00008531  0.50001094  0.33399412
   0.16668877  0.33339448  0.33403427
   0.00000244  0.00000964  0.33400907
   0.16678096  0.83337864  0.33403772
   0.50000431  0.50009931  0.33399545
   0.66671497  0.33335319  0.33392845
   0.49991413 -0.00007356  0.33399300
   0.66667167  0.83328248  0.33403480
Direct configuration=    24
   0.00412576  0.00267436  0.10488079
   0.35931090  0.00307634  0.10091656
   0.00388154  0.35760133  0.10091922
   0.64927504  0.64763821  0.10091036
   0.32788828  0.32608132  0.10125122
   0.68085798  0.00320915  0.10124961
   0.00375175  0.67902716  0.10124547
   0.00008291  0.50004827  0.33402143
   0.16671606  0.33340700  0.33404261
   0.00003190  0.00001578  0.33401676
   0.16671176  0.83331663  0.33404650
   0.50000262  0.50003805  0.33402347
   0.66668535  0.33334930  0.33392485
   0.50001169 -0.00003398  0.33402055
   0.66662712  0.83331841  0.33404326
Direct configuration=    25
   0.00412816  0.00267961  0.10482999
   0.35930189  0.00308710  0.10092723
   0.00387371  0.35758024  0.10093008
   0.64929329  0.64764779  0.10092051
   0.32787507  0.32607068  0.10124764
   0.68086467  0.00320796  0.10124407
   0.00375238  0.67903318  0.10123953
   0.00008218  0.50005961  0.33402972
   0.16672436  0.33341080  0.33404515
   0.00004085  0.00001764  0.33401910
   0.16669074  0.83329780  0.33404917
   0.50000211  0.50001944  0.33403198
   0.66667635  0.33334812  0.33392375
   0.50004133 -0.00002195  0.33402892
   0.66661358  0.83332932  0.33404583
Direct configuration=    26
   0.00414594  0.00272153  0.10468425
   0.35927051  0.00311418  0.10094140
   0.00384843  0.35751481  0.10094440
   0.64935460  0.64767283  0.10093393
   0.32781056  0.32605143  0.10124650
   0.68086377  0.00315920  0.10123851
   0.00378822  0.67906799  0.10123311
   0.00001638  0.49999662  0.33404824
   0.16670047  0.33341189  0.33406537
   0.00003255  0.00001721  0.33401575
   0.16673631  0.83333526  0.33406991
   0.50005528  0.50002360  0.33405130
   0.66668664  0.33334990  0.33392649
   0.50002737  0.00003312  0.33404747
   0.66662363  0.83329777  0.33406604
Direct configuration=    27
   0.00415484  0.00274253  0.10461124
   0.35925479  0.00312775  0.10094850
   0.00383577  0.35748203  0.10095157
   0.64938532  0.64768538  0.10094065
   0.32777825  0.32604178  0.10124592
   0.68086332  0.00313477  0.10123573
   0.00380618  0.67908543  0.10122989
  -0.00001659  0.49996506  0.33405751
   0.16668850  0.33341244  0.33407551
   0.00002839  0.00001699  0.33401408
   0.16675915  0.83335402  0.33408030
   0.50008192  0.50002568  0.33406097
   0.66669179  0.33335080  0.33392787
   0.50002038  0.00006071  0.33405677
   0.66662866  0.83328196  0.33407616
Direct configuration=    28
   0.00416456  0.00277025  0.10445376
   0.35925733  0.00313348  0.10095020
   0.00381154  0.35747879  0.10095300
   0.64940388  0.64766740  0.10094233
   0.32777991  0.32609612  0.10125176
   0.68080133  0.00306242  0.10123854
   0.00385132  0.67908562  0.10123216
   0.00002311  0.49997687  0.33407220
   0.16668473  0.33340806  0.33410512
   0.00001827  0.00001482  0.33400988
   0.16678126  0.83337380  0.33411029
   0.50005890  0.50006309  0.33407633
   0.66670497  0.33335304  0.33394013
   0.49997110  0.00000893  0.33407132
   0.66664846  0.83327464  0.33410564
Direct configuration=    29
   0.00417640  0.00280399  0.10426198
   0.35926042  0.00314047  0.10095228
   0.00378203  0.35747483  0.10095475
   0.64942649  0.64764550  0.10094438
   0.32778194  0.32616230  0.10125888
   0.68072582  0.00297432  0.10124196
   0.00390630  0.67908585  0.10123492
   0.00007146  0.49999126  0.33409009
   0.16668015  0.33340273  0.33414119
   0.00000594  0.00001217  0.33400476
   0.16680818  0.83339789  0.33414683
   0.50003087  0.50010863  0.33409503
   0.66672102  0.33335578  0.33395506
   0.49991108 -0.00005413  0.33408903
   0.66667257  0.83326574  0.33414154
Direct configuration=    30
   0.00417520  0.00280794  0.10412572
   0.35927714  0.00312816  0.10095083
   0.00376981  0.35750702  0.10095291
   0.64941479  0.64761633  0.10094332
   0.32780636  0.32620802  0.10126262
   0.68068148  0.00293331  0.10124432
   0.00392649  0.67908125  0.10123710
   0.00009054  0.50002485  0.33410445
   0.16669120  0.33339978  0.33416369
   0.00002731  0.00001675  0.33401183
   0.16675606  0.83336293  0.33416938
   0.50002308  0.50007903  0.33410964
   0.66670086  0.33335350  0.33396978
   0.49996667 -0.00004640  0.33410319
   0.66665367  0.83329487  0.33416389
Direct configuration=    31
   0.00417417  0.00281134  0.10400817
   0.35929157  0.00311754  0.10094959
   0.00375927  0.35753479  0.10095132
   0.64940469  0.64759117  0.10094240
   0.32782743  0.32624747  0.10126584
   0.68064323  0.00289793  0.10124635
   0.00394390  0.67907727  0.10123897
   0.00010700  0.50005384  0.33411684
   0.16670073  0.33339722  0.33418311
   0.00004574  0.00002070  0.33401793
   0.16671110  0.83333277  0.33418883
   0.50001636  0.50005349  0.33412224
   0.66668348  0.33335153  0.33398248
   0.50001463 -0.00003974  0.33411541
   0.66663737  0.83332001  0.33418317
Direct configuration=    32
   0.00416814  0.00280330  0.10389778
   0.35930460  0.00309480  0.10094932
   0.00376400  0.35757066  0.10095068
   0.64937891  0.64757391  0.10094279
   0.32783313  0.32623493  0.10126288
   0.68065712  0.00290868  0.10124380
   0.00393098  0.67908661  0.10123655
   0.00005588  0.50002826  0.33413279
   0.16670947  0.33340502  0.33419435
   0.00004111  0.00002125  0.33404041
   0.16672203  0.83333186  0.33419973
   0.50003645  0.50003089  0.33413798
   0.66668948  0.33335318  0.33399817
   0.50003231  0.00000650  0.33413118
   0.66663705  0.83331747  0.33419426
Direct configuration=    33
   0.00415723  0.00278873  0.10369779
   0.35932819  0.00305362  0.10094883
   0.00377257  0.35763565  0.10094951
   0.64933219  0.64754265  0.10094349
   0.32784346  0.32621221  0.10125752
   0.68068230  0.00292816  0.10123918
   0.00390757  0.67910353  0.10123217
  -0.00003673  0.49998193  0.33416169
   0.16672532  0.33341914  0.33421471
   0.00003272  0.00002225  0.33408113
   0.16674183  0.83333022  0.33421950
   0.50007286  0.49998994  0.33416650
   0.66670034  0.33335617  0.33402659
   0.50006433  0.00009026  0.33415974
   0.66663648  0.83331287  0.33421433
Direct configuration=    34
   0.00415487  0.00278678  0.10359954
   0.35933223  0.00303559  0.10095097
   0.00378445  0.35765391  0.10095137
   0.64930946  0.64753817  0.10094629
   0.32783629  0.32617831  0.10124939
   0.68071318  0.00295826  0.10123218
   0.00388592  0.67910907  0.10122544
  -0.00001995  0.49997874  0.33417714
   0.16671765  0.33342063  0.33422309
   0.00002998  0.00002156  0.33410731
   0.16675953  0.83334451  0.33422745
   0.50007315  0.50001380  0.33418160
   0.66670545  0.33335705  0.33404328
   0.50003762  0.00007009  0.33417504
   0.66664085  0.83330087  0.33422259
Direct configuration=    35
   0.00414780  0.00278091  0.10330479
   0.35934432  0.00298153  0.10095742
   0.00382008  0.35770869  0.10095696
   0.64924125  0.64752473  0.10095469
   0.32781476  0.32607660  0.10122499
   0.68080582  0.00304854  0.10121118
   0.00382099  0.67912569  0.10120524
   0.00003040  0.49996917  0.33422349
   0.16669466  0.33342509  0.33424821
   0.00002175  0.00001947  0.33418584
   0.16681260  0.83338739  0.33425132
   0.50007402  0.50008538  0.33422689
   0.66672079  0.33335967  0.33409336
   0.49995747  0.00000959  0.33422094
   0.66665396  0.83326489  0.33424735
Direct configuration=    36
   0.00415001  0.00278595  0.10317861
   0.35933657  0.00297523  0.10096474
   0.00383817  0.35770095  0.10096408
   0.64922431  0.64753382  0.10096271
   0.32781780  0.32605650  0.10120526
   0.68082012  0.00308729  0.10119380
   0.00379793  0.67910064  0.10118836
   0.00008486  0.50001811  0.33424122
   0.16669810  0.33340906  0.33426399
   0.00004080  0.00002299  0.33421731
   0.16676041  0.83336356  0.33426666
   0.50004907  0.50007841  0.33424416
   0.66670376  0.33335782  0.33412014
   0.49998712 -0.00002106  0.33423856
   0.66665164  0.83329806  0.33426307
Direct configuration=    37
   0.00415166  0.00278970  0.10308468
   0.35933080  0.00297054  0.10097019
   0.00385162  0.35769518  0.10096938
   0.64921170  0.64754059  0.10096868
   0.32782006  0.32604155  0.10119058
   0.68083077  0.00311613  0.10118087
   0.00378076  0.67908200  0.10117579
   0.00012541  0.50005454  0.33425443
   0.16670066  0.33339713  0.33427573
   0.00005498  0.00002562  0.33424073
   0.16672156  0.83334583  0.33427808
   0.50003050  0.50007322  0.33425701
   0.66669108  0.33335645  0.33414009
   0.50000919 -0.00004388  0.33425167
   0.66664991  0.83332275  0.33427476
Direct configuration=    38
   0.00415165  0.00278599  0.10296048
   0.35931277  0.00298223  0.10098046
   0.00386389  0.35766540  0.10097966
   0.64921583  0.64756180  0.10097940
   0.32784267  0.32606444  0.10116367
   0.68080688  0.00313121  0.10115696
   0.00377259  0.67903765  0.10115250
   0.00008997  0.50004853  0.33426956
   0.16671680  0.33339574  0.33429862
   0.00004902  0.00002621  0.33426426
   0.16671924  0.83333971  0.33430083
   0.50002994  0.50004789  0.33427184
   0.66669950  0.33335889  0.33416988
   0.50002800 -0.00001435  0.33426683
   0.66666192  0.83333600  0.33429770
Direct configuration=    39
   0.00415162  0.00278024  0.10276811
   0.35928484  0.00300033  0.10099637
   0.00388288  0.35761928  0.10099560
   0.64922222  0.64759466  0.10099602
   0.32787769  0.32609989  0.10112201
   0.68076988  0.00315456  0.10111993
   0.00375993  0.67896897  0.10111643
   0.00003508  0.50003921  0.33429301
   0.16674180  0.33339359  0.33433407
   0.00003980  0.00002712  0.33430071
   0.16671565  0.83333023  0.33433606
   0.50002907  0.50000866  0.33429481
   0.66671256  0.33336268  0.33421603
   0.50005713  0.00003140  0.33429030
   0.66668051  0.83335651  0.33433322
Direct configuration=    40
   0.00413730  0.00274375  0.10260882
   0.35926690  0.00302479  0.10100513
   0.00387937  0.35759032  0.10100457
   0.64925088  0.64762099  0.10100494
   0.32788671  0.32613752  0.10108795
   0.68073995  0.00312750  0.10108971
   0.00377257  0.67896347  0.10108701
   0.00003889  0.49998988  0.33431634
   0.16670644  0.33342085  0.33436776
   0.00004012  0.00002666  0.33432261
   0.16678591  0.83337387  0.33437008
   0.50007859  0.50006635  0.33431809
   0.66671735  0.33336319  0.33424878
   0.50000155  0.00002706  0.33431378
   0.66665813  0.83329114  0.33436710
Direct configuration=    41
   0.00413633  0.00274127  0.10259799
   0.35926568  0.00302645  0.10100573
   0.00387913  0.35758835  0.10100518
   0.64925283  0.64762278  0.10100555
   0.32788732  0.32614008  0.10108564
   0.68073792  0.00312566  0.10108765
   0.00377343  0.67896310  0.10108501
   0.00003915  0.49998653  0.33431793
   0.16670404  0.33342270  0.33437005
   0.00004014  0.00002662  0.33432410
   0.16679069  0.83337684  0.33437239
   0.50008196  0.50007028  0.33431967
   0.66671767  0.33336323  0.33425101
   0.49999777  0.00002676  0.33431538
   0.66665661  0.83328669  0.33436940
Direct configuration=    42
   0.00412107  0.00270649  0.10248719
   0.35927379  0.00304738  0.10100388
   0.00386006  0.35758902  0.10100363
   0.64927240  0.64762106  0.10100339
   0.32786013  0.32615146  0.10106665
   0.68073259  0.00307660  0.10107088
   0.00380080  0.67900832  0.10106869
   0.00008535  0.50001055  0.33434114
   0.16669880  0.33342321  0.33439402
   0.00005177  0.00002826  0.33433504
   0.16677952  0.83337283  0.33439703
   0.50007319  0.50008675  0.33434319
   0.66670875  0.33336213  0.33426552
   0.49999571 -0.00000516  0.33433882
   0.66664674  0.83328843  0.33439360
Direct configuration=    43
   0.00410971  0.00268058  0.10240467
   0.35927983  0.00306298  0.10100250
   0.00384585  0.35758953  0.10100248
   0.64928697  0.64761978  0.10100178
   0.32783988  0.32615994  0.10105250
   0.68072863  0.00304006  0.10105839
   0.00382118  0.67904201  0.10105654
   0.00011977  0.50002844  0.33435842
   0.16669490  0.33342359  0.33441188
   0.00006044  0.00002947  0.33434319
   0.16677120  0.83336985  0.33441538
   0.50006666  0.50009901  0.33436070
   0.66670211  0.33336132  0.33427633
   0.49999418 -0.00002894  0.33435628
   0.66663938  0.83328972  0.33441163
Direct configuration=    44
   0.00410875  0.00268059  0.10229392
   0.35931381  0.00308405  0.10099352
   0.00382343  0.35760331  0.10099389
   0.64927414  0.64758377  0.10099220
   0.32780487  0.32616079  0.10103905
   0.68072328  0.00300269  0.10104638
   0.00385107  0.67907187  0.10104484
   0.00007924  0.50004066  0.33438664
   0.16672722  0.33340611  0.33443412
   0.00004781  0.00002971  0.33435507
   0.16674905  0.83335467  0.33443842
   0.50004032  0.50005398  0.33438940
   0.66671737  0.33336537  0.33428630
   0.50002449 -0.00000149  0.33438479
   0.66667582  0.83333126  0.33443413
Direct configuration=    45
   0.00410846  0.00268060  0.10225984
   0.35932426  0.00309053  0.10099075
   0.00381653  0.35760755  0.10099125
   0.64927020  0.64757269  0.10098925
   0.32779409  0.32616105  0.10103491
   0.68072163  0.00299119  0.10104269
   0.00386027  0.67908106  0.10104123
   0.00006677  0.50004443  0.33439532
   0.16673716  0.33340073  0.33444097
   0.00004393  0.00002978  0.33435872
   0.16674223  0.83334999  0.33444550
   0.50003222  0.50004012  0.33439823
   0.66672206  0.33336661  0.33428937
   0.50003382  0.00000696  0.33439356
   0.66668704  0.83334404  0.33444106
Direct configuration=    46
   0.00412158  0.00271491  0.10217342
   0.35935776  0.00309766  0.10097792
   0.00380367  0.35762144  0.10097874
   0.64923554  0.64752765  0.10097577
   0.32778019  0.32615678  0.10102744
   0.68071386  0.00298890  0.10103540
   0.00387197  0.67907065  0.10103399
   0.00004450  0.50001614  0.33441980
   0.16672360  0.33340694  0.33445775
   0.00004723  0.00003137  0.33437169
   0.16676112  0.83336429  0.33446275
   0.50006341  0.50004515  0.33442305
   0.66672204  0.33336730  0.33429870
   0.50003316  0.00003308  0.33441823
   0.66668103  0.83332505  0.33445802
Direct configuration=    47
   0.00412817  0.00273216  0.10212999
   0.35937459  0.00310124  0.10097147
   0.00379722  0.35762841  0.10097245
   0.64921813  0.64750502  0.10096899
   0.32777321  0.32615463  0.10102368
   0.68070995  0.00298775  0.10103173
   0.00387785  0.67906542  0.10103035
   0.00003330  0.50000193  0.33443210
   0.16671679  0.33341007  0.33446618
   0.00004889  0.00003217  0.33437821
   0.16677062  0.83337147  0.33447142
   0.50007908  0.50004769  0.33443552
   0.66672203  0.33336765  0.33430340
   0.50003282  0.00004621  0.33443062
   0.66667801  0.83331551  0.33446654
Direct configuration=    48
   0.00413391  0.00275221  0.10206274
   0.35937189  0.00308675  0.10095912
   0.00379353  0.35763158  0.10096028
   0.64920873  0.64749590  0.10095611
   0.32778476  0.32614533  0.10101718
   0.68071291  0.00300623  0.10102437
   0.00386353  0.67905050  0.10102282
   0.00008505  0.50001995  0.33444958
   0.16671129  0.33342445  0.33448084
   0.00005897  0.00003273  0.33439274
   0.16677543  0.83336923  0.33448616
   0.50007471  0.50007743  0.33445307
   0.66671432  0.33336631  0.33431817
   0.50001624  0.00000662  0.33444820
   0.66665541  0.83330211  0.33448130
Direct configuration=    49
   0.00413489  0.00275561  0.10205133
   0.35937144  0.00308430  0.10095702
   0.00379290  0.35763212  0.10095822
   0.64920714  0.64749435  0.10095393
   0.32778672  0.32614376  0.10101608
   0.68071341  0.00300936  0.10102312
   0.00386110  0.67904797  0.10102154
   0.00009383  0.50002301  0.33445254
   0.16671035  0.33342689  0.33448332
   0.00006068  0.00003283  0.33439521
   0.16677624  0.83336884  0.33448866
   0.50007396  0.50008247  0.33445604
   0.66671301  0.33336608  0.33432068
   0.50001342 -0.00000009  0.33445118
   0.66665158  0.83329984  0.33448380
Direct configuration=    50
   0.00413035  0.00275389  0.10198837
   0.35933787  0.00305427  0.10094520
   0.00379590  0.35762726  0.10094646
   0.64922547  0.64751950  0.10094169
   0.32781202  0.32613102  0.10100611
   0.68072503  0.00303429  0.10101150
   0.00383020  0.67904055  0.10100958
   0.00009857  0.50004264  0.33446690
   0.16672920  0.33341901  0.33449966
   0.00005372  0.00003230  0.33441325
   0.16676623  0.83336093  0.33450479
   0.50004805  0.50007332  0.33447023