  16  16   0  16
  0.2014350E+02  0.4981000E-09  0.4981000E-09  0.1500000E-08  0.5000000E-15
  1.000000000000000E-004
  CAR 
 Lattice                                 
      9.98791557    -21.48516137  301     -0.86692997      1.00000000
    -21.485  0.0000E+00  0.0000E+00  0.0000E+00  0.0000E+00
    -21.380  0.0000E+00  0.0000E+00  0.0000E+00  0.0000E+00
    -21.275  0.0000E+00  0.0000E+00  0.0000E+00  0.0000E+00
    -21.170  0.0000E+00  0.0000E+00  0.0000E+00  0.0000E+00
    -21.066  0.0000E+00  0.0000E+00  0.0000E+00  0.0000E+00
    -20.961  0.0000E+00  0.0000E+00  0.0000E+00  0.0000E+00
    -20.856  0.0000E+00  0.0000E+00  0.0000E+00  0.0000E+00
    -20.751  0.0000E+00  0.0000E+00  0.0000E+00  0.0000E+00
    -20.646  0.2871E-19  0.2871E-19  0.3012E-20  0.3012E-20
    -20.541  0.1707E-14  0.1707E-14  0.1791E-15  0.1791E-15
    -20.436  0.2149E-10  0.2149E-10  0.2255E-11  0.2255E-11
    -20.331  0.3522E-07  0.3522E-07  0.3697E-08  0.3697E-08
    -20.226  0.8166E-05  0.8166E-05  0.8603E-06  0.8603E-06
    -20.121  0.2969E-03  0.2969E-03  0.3200E-04  0.3200E-04
    -20.016  0.2076E-02  0.2076E-02  0.2498E-03  0.2498E-03
    -19.912  0.4325E-02  0.4325E-02  0.7036E-03  0.7036E-03
    -19.807  0.4781E-02  0.4781E-02  0.1205E-02  0.1205E-02
    -19.702  0.5088E-02  0.5088E-02  0.1739E-02  0.1739E-02
    -19.597  0.4484E-02  0.4484E-02  0.2209E-02  0.2209E-02
    -19.492  0.5601E-02  0.5601E-02  0.2797E-02  0.2797E-02
    -19.387  0.4198E-02  0.4198E-02  0.3237E-02  0.3237E-02
    -19.282  0.4994E-02  0.4994E-02  0.3761E-02  0.3761E-02
    -19.177  0.5949E-02  0.5949E-02  0.4385E-02  0.4385E-02
    -19.072  0.3588E-02  0.3588E-02  0.4762E-02  0.4762E-02
    -18.967  0.4962E-02  0.4962E-02  0.5282E-02  0.5282E-02
    -18.862  0.6324E-02  0.6324E-02  0.5946E-02  0.5946E-02
    -18.757  0.4611E-02  0.4611E-02  0.6430E-02  0.6430E-02
    -18.653  0.3070E-02  0.3070E-02  0.6752E-02  0.6752E-02
    -18.548  0.6292E-02  0.6292E-02  0.7412E-02  0.7412E-02
    -18.443  0.6263E-02  0.6263E-02  0.8069E-02  0.8069E-02
    -18.338  0.4223E-02  0.4223E-02  0.8512E-02  0.8512E-02
    -18.233  0.3359E-02  0.3359E-02  0.8864E-02  0.8864E-02
    -18.128  0.5543E-02  0.5543E-02  0.9446E-02  0.9446E-02
    -18.023  0.1068E-01  0.1068E-01  0.1057E-01  0.1057E-01
    -17.918  0.1092E-01  0.1092E-01  0.1171E-01  0.1171E-01
    -17.813  0.1033E-01  0.1033E-01  0.1280E-01  0.1280E-01
    -17.708  0.1202E-01  0.1202E-01  0.1406E-01  0.1406E-01
    -17.603  0.1462E-01  0.1462E-01  0.1559E-01  0.1559E-01
    -17.499  0.1836E-01  0.1836E-01  0.1752E-01  0.1752E-01
    -17.394  0.2015E-01  0.2015E-01  0.1963E-01  0.1963E-01
    -17.289  0.1470E-01  0.1470E-01  0.2117E-01  0.2117E-01
    -17.184  0.6262E-02  0.6262E-02  0.2183E-01  0.2183E-01
    -17.079  0.6843E-02  0.6843E-02  0.2255E-01  0.2255E-01
    -16.974  0.6941E-02  0.6941E-02  0.2328E-01  0.2328E-01
    -16.869  0.5769E-02  0.5769E-02  0.2388E-01  0.2388E-01
    -16.764  0.4699E-02  0.4699E-02  0.2437E-01  0.2437E-01
    -16.659  0.3414E-02  0.3414E-02  0.2473E-01  0.2473E-01
    -16.554  0.2616E-02  0.2616E-02  0.2501E-01  0.2501E-01
    -16.449  0.8153E-02  0.8153E-02  0.2586E-01  0.2586E-01
    -16.345  0.7660E-02  0.7660E-02  0.2666E-01  0.2666E-01
    -16.240  0.4791E-02  0.4791E-02  0.2717E-01  0.2717E-01
    -16.135  0.4274E-02  0.4274E-02  0.2762E-01  0.2762E-01
    -16.030  0.4285E-02  0.4285E-02  0.2807E-01  0.2807E-01
    -15.925  0.3451E-02  0.3451E-02  0.2843E-01  0.2843E-01
    -15.820  0.5904E-02  0.5904E-02  0.2905E-01  0.2905E-01
    -15.715  0.1135E-01  0.1135E-01  0.3024E-01  0.3024E-01
    -15.610  0.1267E-01  0.1267E-01  0.3157E-01  0.3157E-01
    -15.505  0.1431E-01  0.1431E-01  0.3307E-01  0.3307E-01
    -15.400  0.1542E-01  0.1542E-01  0.3468E-01  0.3468E-01
    -15.295  0.1261E-01  0.1261E-01  0.3601E-01  0.3601E-01
    -15.191  0.1206E-01  0.1206E-01  0.3727E-01  0.3727E-01
    -15.086  0.1539E-01  0.1539E-01  0.3889E-01  0.3889E-01
    -14.981  0.1698E-01  0.1698E-01  0.4067E-01  0.4067E-01
    -14.876  0.1345E-01  0.1345E-01  0.4208E-01  0.4208E-01
    -14.771  0.1242E-01  0.1242E-01  0.4338E-01  0.4338E-01
    -14.666  0.9010E-02  0.9010E-02  0.4433E-01  0.4433E-01
    -14.561  0.1063E-01  0.1063E-01  0.4544E-01  0.4544E-01
    -14.456  0.1717E-01  0.1717E-01  0.4724E-01  0.4724E-01
    -14.351  0.1847E-01  0.1847E-01  0.4918E-01  0.4918E-01
    -14.246  0.1268E-01  0.1268E-01  0.5051E-01  0.5051E-01
    -14.141  0.8834E-02  0.8834E-02  0.5144E-01  0.5144E-01
    -14.037  0.7579E-02  0.7579E-02  0.5224E-01  0.5224E-01
    -13.932  0.7671E-02  0.7671E-02  0.5304E-01  0.5304E-01
    -13.827  0.9245E-02  0.9245E-02  0.5401E-01  0.5401E-01
    -13.722  0.7503E-02  0.7503E-02  0.5480E-01  0.5480E-01
    -13.617  0.5488E-02  0.5488E-02  0.5537E-01  0.5537E-01
    -13.512  0.4166E-02  0.4166E-02  0.5581E-01  0.5581E-01
    -13.407  0.5377E-02  0.5377E-02  0.5637E-01  0.5637E-01
    -13.302  0.5147E-02  0.5147E-02  0.5691E-01  0.5691E-01
    -13.197  0.6019E-02  0.6019E-02  0.5755E-01  0.5755E-01
    -13.092  0.7534E-02  0.7534E-02  0.5834E-01  0.5834E-01
    -12.987  0.6178E-02  0.6178E-02  0.5898E-01  0.5898E-01
    -12.883  0.7960E-02  0.7960E-02  0.5982E-01  0.5982E-01
    -12.778  0.7739E-02  0.7739E-02  0.6063E-01  0.6063E-01
    -12.673  0.5260E-02  0.5260E-02  0.6118E-01  0.6118E-01
    -12.568  0.6623E-02  0.6623E-02  0.6188E-01  0.6188E-01
    -12.463  0.3164E-02  0.3164E-02  0.6221E-01  0.6221E-01
    -12.358  0.6557E-02  0.6557E-02  0.6290E-01  0.6290E-01
    -12.253  0.8939E-02  0.8939E-02  0.6384E-01  0.6384E-01
    -12.148  0.5714E-02  0.5714E-02  0.6443E-01  0.6443E-01
    -12.043  0.8521E-02  0.8521E-02  0.6533E-01  0.6533E-01
    -11.938  0.1361E-01  0.1361E-01  0.6676E-01  0.6676E-01
    -11.833  0.1688E-01  0.1688E-01  0.6853E-01  0.6853E-01
    -11.729  0.1503E-01  0.1503E-01  0.7010E-01  0.7010E-01
    -11.624  0.1333E-01  0.1333E-01  0.7150E-01  0.7150E-01
    -11.519  0.1508E-01  0.1508E-01  0.7308E-01  0.7308E-01
    -11.414  0.1378E-01  0.1378E-01  0.7453E-01  0.7453E-01
    -11.309  0.8065E-02  0.8065E-02  0.7538E-01  0.7538E-01
    -11.204  0.9176E-02  0.9176E-02  0.7634E-01  0.7634E-01
    -11.099  0.1243E-01  0.1243E-01  0.7764E-01  0.7764E-01
    -10.994  0.1065E-01  0.1065E-01  0.7876E-01  0.7876E-01
    -10.889  0.6684E-02  0.6684E-02  0.7946E-01  0.7946E-01
    -10.784  0.9806E-02  0.9806E-02  0.8049E-01  0.8049E-01
    -10.679  0.1454E-01  0.1454E-01  0.8202E-01  0.8202E-01
    -10.574  0.1543E-01  0.1543E-01  0.8363E-01  0.8363E-01
    -10.470  0.7506E-02  0.7506E-02  0.8442E-01  0.8442E-01
    -10.365  0.5687E-02  0.5687E-02  0.8502E-01  0.8502E-01
    -10.260  0.1561E-01  0.1561E-01  0.8666E-01  0.8666E-01
    -10.155  0.1897E-01  0.1897E-01  0.8865E-01  0.8865E-01
    -10.050  0.1308E-01  0.1308E-01  0.9002E-01  0.9002E-01
     -9.945  0.8164E-02  0.8164E-02  0.9087E-01  0.9087E-01
     -9.840  0.5704E-02  0.5704E-02  0.9147E-01  0.9147E-01
     -9.735  0.9620E-02  0.9620E-02  0.9248E-01  0.9248E-01
     -9.630  0.1453E-01  0.1453E-01  0.9401E-01  0.9401E-01
     -9.525  0.1305E-01  0.1305E-01  0.9538E-01  0.9538E-01
     -9.420  0.8026E-02  0.8026E-02  0.9622E-01  0.9622E-01
     -9.316  0.7333E-02  0.7333E-02  0.9699E-01  0.9699E-01
     -9.211  0.1090E-01  0.1090E-01  0.9813E-01  0.9813E-01
     -9.106  0.5462E-02  0.5462E-02  0.9870E-01  0.9870E-01
     -9.001  0.3136E-02  0.3136E-02  0.9903E-01  0.9903E-01
     -8.896  0.1128E-01  0.1128E-01  0.1002E+00  0.1002E+00
     -8.791  0.1659E-01  0.1659E-01  0.1020E+00  0.1020E+00
     -8.686  0.1745E-01  0.1745E-01  0.1038E+00  0.1038E+00
     -8.581  0.1008E-01  0.1008E-01  0.1048E+00  0.1048E+00
     -8.476  0.8398E-02  0.8398E-02  0.1057E+00  0.1057E+00
     -8.371  0.9532E-02  0.9532E-02  0.1067E+00  0.1067E+00
     -8.266  0.1460E-01  0.1460E-01  0.1083E+00  0.1083E+00
     -8.162  0.2630E-01  0.2630E-01  0.1110E+00  0.1110E+00
     -8.057  0.2426E-01  0.2426E-01  0.1136E+00  0.1136E+00
     -7.952  0.1705E-01  0.1705E-01  0.1153E+00  0.1153E+00
     -7.847  0.1282E-01  0.1282E-01  0.1167E+00  0.1167E+00
     -7.742  0.1316E-01  0.1316E-01  0.1181E+00  0.1181E+00
     -7.637  0.2336E-01  0.2336E-01  0.1205E+00  0.1205E+00
     -7.532  0.2437E-01  0.2437E-01  0.1231E+00  0.1231E+00
     -7.427  0.2093E-01  0.2093E-01  0.1253E+00  0.1253E+00
     -7.322  0.2305E-01  0.2305E-01  0.1277E+00  0.1277E+00
     -7.217  0.2265E-01  0.2265E-01  0.1301E+00  0.1301E+00
     -7.112  0.2233E-01  0.2233E-01  0.1324E+00  0.1324E+00
     -7.008  0.2709E-01  0.2709E-01  0.1353E+00  0.1353E+00
     -6.903  0.2631E-01  0.2631E-01  0.1380E+00  0.1380E+00
     -6.798  0.1564E-01  0.1564E-01  0.1397E+00  0.1397E+00
     -6.693  0.1934E-01  0.1934E-01  0.1417E+00  0.1417E+00
     -6.588  0.2935E-01  0.2935E-01  0.1448E+00  0.1448E+00
     -6.483  0.2889E-01  0.2889E-01  0.1478E+00  0.1478E+00
     -6.378  0.2294E-01  0.2294E-01  0.1502E+00  0.1502E+00
     -6.273  0.2075E-01  0.2075E-01  0.1524E+00  0.1524E+00
     -6.168  0.2295E-01  0.2295E-01  0.1548E+00  0.1548E+00
     -6.063  0.2398E-01  0.2398E-01  0.1573E+00  0.1573E+00
     -5.958  0.1725E-01  0.1725E-01  0.1591E+00  0.1591E+00
     -5.854  0.1839E-01  0.1839E-01  0.1610E+00  0.1610E+00
     -5.749  0.2088E-01  0.2088E-01  0.1632E+00  0.1632E+00
     -5.644  0.2075E-01  0.2075E-01  0.1654E+00  0.1654E+00
     -5.539  0.2228E-01  0.2228E-01  0.1677E+00  0.1677E+00
     -5.434  0.2210E-01  0.2210E-01  0.1701E+00  0.1701E+00
     -5.329  0.2510E-01  0.2510E-01  0.1727E+00  0.1727E+00
     -5.224  0.2577E-01  0.2577E-01  0.1754E+00  0.1754E+00
     -5.119  0.2060E-01  0.2060E-01  0.1776E+00  0.1776E+00
     -5.014  0.9348E-02  0.9348E-02  0.1785E+00  0.1785E+00
     -4.909  0.1200E-01  0.1200E-01  0.1798E+00  0.1798E+00
     -4.804  0.1946E-01  0.1946E-01  0.1818E+00  0.1818E+00
     -4.700  0.1936E-01  0.1936E-01  0.1839E+00  0.1839E+00
     -4.595  0.1491E-01  0.1491E-01  0.1854E+00  0.1854E+00
     -4.490  0.1570E-01  0.1570E-01  0.1871E+00  0.1871E+00
     -4.385  0.1899E-01  0.1899E-01  0.1891E+00  0.1891E+00
     -4.280  0.2149E-01  0.2149E-01  0.1913E+00  0.1913E+00
     -4.175  0.2555E-01  0.2555E-01  0.1940E+00  0.1940E+00
     -4.070  0.3101E-01  0.3101E-01  0.1973E+00  0.1973E+00
     -3.965  0.3740E-01  0.3740E-01  0.2012E+00  0.2012E+00
     -3.860  0.3186E-01  0.3186E-01  0.2045E+00  0.2045E+00
     -3.755  0.1935E-01  0.1935E-01  0.2066E+00  0.2066E+00
     -3.650  0.1657E-01  0.1657E-01  0.2083E+00  0.2083E+00
     -3.546  0.1766E-01  0.1766E-01  0.2102E+00  0.2102E+00
     -3.441  0.1599E-01  0.1599E-01  0.2118E+00  0.2118E+00
     -3.336  0.1938E-01  0.1938E-01  0.2139E+00  0.2139E+00
     -3.231  0.1632E-01  0.1632E-01  0.2156E+00  0.2156E+00
     -3.126  0.1657E-01  0.1657E-01  0.2173E+00  0.2173E+00
     -3.021  0.1457E-01  0.1457E-01  0.2188E+00  0.2188E+00
     -2.916  0.1640E-01  0.1640E-01  0.2206E+00  0.2206E+00
     -2.811  0.2450E-01  0.2450E-01  0.2231E+00  0.2231E+00
     -2.706  0.1727E-01  0.1727E-01  0.2249E+00  0.2249E+00
     -2.601  0.1230E-01  0.1230E-01  0.2262E+00  0.2262E+00
     -2.496  0.1878E-01  0.1878E-01  0.2282E+00  0.2282E+00
     -2.391  0.2143E-01  0.2143E-01  0.2305E+00  0.2305E+00
     -2.287  0.2170E-01  0.2170E-01  0.2327E+00  0.2327E+00
     -2.182  0.1800E-01  0.1800E-01  0.2346E+00  0.2346E+00
     -2.077  0.1633E-01  0.1633E-01  0.2363E+00  0.2363E+00
     -1.972  0.1287E-01  0.1287E-01  0.2377E+00  0.2377E+00
     -1.867  0.3999E-02  0.3999E-02  0.2381E+00  0.2381E+00
     -1.762  0.3700E-02  0.3700E-02  0.2385E+00  0.2385E+00
     -1.657  0.6888E-02  0.6888E-02  0.2392E+00  0.2392E+00
     -1.552  0.6101E-02  0.6101E-02  0.2399E+00  0.2399E+00
     -1.447  0.6214E-02  0.6214E-02  0.2405E+00  0.2405E+00
     -1.342  0.6209E-02  0.6209E-02  0.2412E+00  0.2412E+00
     -1.237  0.4349E-02  0.4349E-02  0.2416E+00  0.2416E+00
     -1.133  0.3152E-02  0.3152E-02  0.2419E+00  0.2419E+00
     -1.028  0.1128E-02  0.1128E-02  0.2421E+00  0.2421E+00
     -0.923  0.3782E-03  0.3782E-03  0.2421E+00  0.2421E+00
     -0.818  0.2213E-02  0.2213E-02  0.2423E+00  0.2423E+00
     -0.713  0.4114E-02  0.4114E-02  0.2428E+00  0.2428E+00
     -0.608  0.4314E-02  0.4314E-02  0.2432E+00  0.2432E+00
     -0.503  0.9184E-02  0.9184E-02  0.2442E+00  0.2442E+00
     -0.398  0.1052E-01  0.1052E-01  0.2453E+00  0.2453E+00
     -0.293  0.8374E-02  0.8374E-02  0.2462E+00  0.2462E+00
     -0.188  0.1091E-01  0.1091E-01  0.2473E+00  0.2473E+00
     -0.083  0.1208E-01  0.1208E-01  0.2486E+00  0.2486E+00
      0.021  0.8489E-02  0.8489E-02  0.2495E+00  0.2495E+00
      0.126  0.3734E-02  0.3734E-02  0.2499E+00  0.2499E+00
      0.231  0.1115E-02  0.1115E-02  0.2500E+00  0.2500E+00
      0.336  0.4054E-03  0.4054E-03  0.2500E+00  0.2500E+00
      0.441  0.2551E-02  0.2551E-02  0.2503E+00  0.2503E+00
      0.546  0.8271E-02  0.8271E-02  0.2512E+00  0.2512E+00
      0.651  0.1015E-01  0.1015E-01  0.2522E+00  0.2522E+00
      0.756  0.5210E-02  0.5210E-02  0.2528E+00  0.2528E+00
      0.861  0.3651E-02  0.3651E-02  0.2532E+00  0.2532E+00
      0.966  0.9248E-02  0.9248E-02  0.2541E+00  0.2541E+00
      1.071  0.1191E-01  0.1191E-01  0.2554E+00  0.2554E+00
      1.175  0.1266E-01  0.1266E-01  0.2567E+00  0.2567E+00
      1.280  0.9266E-02  0.9266E-02  0.2577E+00  0.2577E+00
      1.385  0.3925E-02  0.3925E-02  0.2581E+00  0.2581E+00
      1.490  0.5236E-02  0.5236E-02  0.2586E+00  0.2586E+00
      1.595  0.4895E-02  0.4895E-02  0.2591E+00  0.2591E+00
      1.700  0.4789E-02  0.4789E-02  0.2596E+00  0.2596E+00
      1.805  0.7036E-02  0.7036E-02  0.2604E+00  0.2604E+00
      1.910  0.1080E-01  0.1080E-01  0.2615E+00  0.2615E+00
      2.015  0.8616E-02  0.8616E-02  0.2624E+00  0.2624E+00
      2.120  0.2962E-02  0.2962E-02  0.2627E+00  0.2627E+00
      2.225  0.2756E-02  0.2756E-02  0.2630E+00  0.2630E+00
      2.329  0.1025E-01  0.1025E-01  0.2641E+00  0.2641E+00
      2.434  0.1756E-01  0.1756E-01  0.2659E+00  0.2659E+00
      2.539  0.1251E-01  0.1251E-01  0.2673E+00  0.2673E+00
      2.644  0.1060E-01  0.1060E-01  0.2684E+00  0.2684E+00
      2.749  0.1086E-01  0.1086E-01  0.2695E+00  0.2695E+00
      2.854  0.1166E-01  0.1166E-01  0.2707E+00  0.2707E+00
      2.959  0.1270E-01  0.1270E-01  0.2721E+00  0.2721E+00
      3.064  0.9875E-02  0.9875E-02  0.2731E+00  0.2731E+00
      3.169  0.9380E-02  0.9380E-02  0.2741E+00  0.2741E+00
      3.274  0.1316E-01  0.1316E-01  0.2755E+00  0.2755E+00
      3.379  0.1250E-01  0.1250E-01  0.2768E+00  0.2768E+00
      3.483  0.1201E-01  0.1201E-01  0.2780E+00  0.2780E+00
      3.588  0.1221E-01  0.1221E-01  0.2793E+00  0.2793E+00
      3.693  0.1171E-01  0.1171E-01  0.2805E+00  0.2805E+00
      3.798  0.9760E-02  0.9760E-02  0.2816E+00  0.2816E+00
      3.903  0.1038E-01  0.1039E-01  0.2827E+00  0.2827E+00
      4.008  0.1470E-01  0.1470E-01  0.2842E+00  0.2842E+00
      4.113  0.1604E-01  0.1604E-01  0.2859E+00  0.2859E+00
      4.218  0.1301E-01  0.1301E-01  0.2872E+00  0.2872E+00
      4.323  0.1079E-01  0.1079E-01  0.2884E+00  0.2884E+00
      4.428  0.1265E-01  0.1265E-01  0.2897E+00  0.2897E+00
      4.533  0.2272E-01  0.2272E-01  0.2921E+00  0.2921E+00
      4.637  0.1906E-01  0.1906E-01  0.2941E+00  0.2941E+00
      4.742  0.6408E-02  0.6409E-02  0.2948E+00  0.2948E+00
      4.847  0.1101E-01  0.1101E-01  0.2959E+00  0.2959E+00
      4.952  0.2216E-01  0.2216E-01  0.2982E+00  0.2982E+00
      5.057  0.2237E-01  0.2237E-01  0.3006E+00  0.3006E+00
      5.162  0.1515E-01  0.1515E-01  0.3022E+00  0.3022E+00
      5.267  0.1258E-01  0.1258E-01  0.3035E+00  0.3035E+00
      5.372  0.1643E-01  0.1643E-01  0.3052E+00  0.3052E+00
      5.477  0.1671E-01  0.1670E-01  0.3070E+00  0.3070E+00
      5.582  0.2101E-01  0.2101E-01  0.3092E+00  0.3092E+00
      5.687  0.2151E-01  0.2151E-01  0.3114E+00  0.3114E+00
      5.792  0.1350E-01  0.1350E-01  0.3128E+00  0.3128E+00
      5.896  0.9561E-02  0.9561E-02  0.3139E+00  0.3139E+00
      6.001  0.1480E-01  0.1479E-01  0.3154E+00  0.3154E+00
      6.106  0.1609E-01  0.1609E-01  0.3171E+00  0.3171E+00
      6.211  0.1791E-01  0.1791E-01  0.3190E+00  0.3190E+00
      6.316  0.2504E-01  0.2504E-01  0.3216E+00  0.3216E+00
      6.421  0.2470E-01  0.2470E-01  0.3242E+00  0.3242E+00
      6.526  0.2368E-01  0.2368E-01  0.3267E+00  0.3267E+00
      6.631  0.2041E-01  0.2041E-01  0.3288E+00  0.3288E+00
      6.736  0.2016E-01  0.2016E-01  0.3309E+00  0.3309E+00
      6.841  0.2155E-01  0.2155E-01  0.3332E+00  0.3332E+00
      6.946  0.2258E-01  0.2258E-01  0.3356E+00  0.3356E+00
      7.050  0.2965E-01  0.2965E-01  0.3387E+00  0.3387E+00
      7.155  0.3191E-01  0.3191E-01  0.3420E+00  0.3420E+00
      7.260  0.3100E-01  0.3100E-01  0.3453E+00  0.3453E+00
      7.365  0.3342E-01  0.3342E-01  0.3488E+00  0.3488E+00
      7.470  0.3878E-01  0.3878E-01  0.3528E+00  0.3528E+00
      7.575  0.3115E-01  0.3115E-01  0.3561E+00  0.3561E+00
      7.680  0.2866E-01  0.2865E-01  0.3591E+00  0.3591E+00
      7.785  0.3494E-01  0.3494E-01  0.3628E+00  0.3628E+00
      7.890  0.4130E-01  0.4130E-01  0.3671E+00  0.3671E+00
      7.995  0.3266E-01  0.3266E-01  0.3705E+00  0.3705E+00
      8.100  0.2011E-01  0.2011E-01  0.3727E+00  0.3727E+00
      8.204  0.1101E-01  0.1101E-01  0.3738E+00  0.3738E+00
      8.309  0.4930E-02  0.4930E-02  0.3743E+00  0.3743E+00
      8.414  0.2210E-02  0.2211E-02  0.3746E+00  0.3746E+00
      8.519  0.2299E-02  0.2299E-02  0.3748E+00  0.3748E+00
      8.624  0.1610E-02  0.1609E-02  0.3750E+00  0.3750E+00
      8.729  0.3106E-03  0.3105E-03  0.3750E+00  0.3750E+00
      8.834  0.1222E-04  0.1221E-04  0.3750E+00  0.3750E+00
      8.939  0.7153E-07  0.7153E-07  0.3750E+00  0.3750E+00
      9.044  0.5300E-10  0.5300E-10  0.3750E+00  0.3750E+00
      9.149  0.4662E-14  0.4661E-14  0.3750E+00  0.3750E+00
      9.254  0.0000E+00  0.0000E+00  0.3750E+00  0.3750E+00
      9.358  0.0000E+00  0.0000E+00  0.3750E+00  0.3750E+00
      9.463  0.0000E+00  0.0000E+00  0.3750E+00  0.3750E+00
      9.568  0.0000E+00  0.0000E+00  0.3750E+00  0.3750E+00
      9.673  0.0000E+00  0.0000E+00  0.3750E+00  0.3750E+00
      9.778  0.0000E+00  0.0000E+00  0.3750E+00  0.3750E+00
      9.883  0.0000E+00  0.0000E+00  0.3750E+00  0.3750E+00
      9.988  0.0000E+00  0.0000E+00  0.3750E+00  0.3750E+00
