  15  15   0   4
  0.1953970E+02  0.4750000E-09  0.4750000E-09  0.1500000E-08  0.5000000E-15
  1.000000000000000E-004
  CAR 
 Lattice                                 
     10.74361200    -21.98126009  301     -0.07257058      1.00000000
    -21.981  0.0000E+00  0.0000E+00  0.0000E+00  0.0000E+00
    -21.872  0.0000E+00  0.0000E+00  0.0000E+00  0.0000E+00
    -21.763  0.0000E+00  0.0000E+00  0.0000E+00  0.0000E+00
    -21.654  0.0000E+00  0.0000E+00  0.0000E+00  0.0000E+00
    -21.545  0.0000E+00  0.0000E+00  0.0000E+00  0.0000E+00
    -21.436  0.0000E+00  0.0000E+00  0.0000E+00  0.0000E+00
    -21.327  0.0000E+00  0.0000E+00  0.0000E+00  0.0000E+00
    -21.218  0.0000E+00  0.0000E+00  0.0000E+00  0.0000E+00
    -21.109  0.0000E+00  0.0000E+00  0.0000E+00  0.0000E+00
    -21.000  0.2237E-15  0.2237E-15  0.2440E-16  0.2440E-16
    -20.890  0.5739E-11  0.5739E-11  0.6261E-12  0.6261E-12
    -20.781  0.1598E-07  0.1598E-07  0.1744E-08  0.1744E-08
    -20.672  0.5371E-05  0.5371E-05  0.5877E-06  0.5877E-06
    -20.563  0.2464E-03  0.2464E-03  0.2746E-04  0.2746E-04
    -20.454  0.1898E-02  0.1898E-02  0.2345E-03  0.2345E-03
    -20.345  0.4033E-02  0.4033E-02  0.6745E-03  0.6745E-03
    -20.236  0.4342E-02  0.4342E-02  0.1148E-02  0.1148E-02
    -20.127  0.4815E-02  0.4815E-02  0.1673E-02  0.1673E-02
    -20.018  0.3956E-02  0.3956E-02  0.2105E-02  0.2105E-02
    -19.909  0.5200E-02  0.5200E-02  0.2672E-02  0.2672E-02
    -19.800  0.4192E-02  0.4192E-02  0.3129E-02  0.3129E-02
    -19.691  0.3885E-02  0.3885E-02  0.3553E-02  0.3553E-02
    -19.581  0.5873E-02  0.5873E-02  0.4194E-02  0.4194E-02
    -19.472  0.3950E-02  0.3950E-02  0.4625E-02  0.4625E-02
    -19.363  0.3396E-02  0.3396E-02  0.4995E-02  0.4995E-02
    -19.254  0.5834E-02  0.5834E-02  0.5632E-02  0.5632E-02
    -19.145  0.5305E-02  0.5305E-02  0.6210E-02  0.6210E-02
    -19.036  0.3156E-02  0.3156E-02  0.6555E-02  0.6555E-02
    -18.927  0.3459E-02  0.3459E-02  0.6932E-02  0.6932E-02
    -18.818  0.6761E-02  0.6761E-02  0.7669E-02  0.7669E-02
    -18.709  0.4877E-02  0.4877E-02  0.8201E-02  0.8201E-02
    -18.600  0.3785E-02  0.3785E-02  0.8614E-02  0.8614E-02
    -18.491  0.2730E-02  0.2730E-02  0.8912E-02  0.8912E-02
    -18.382  0.5376E-02  0.5376E-02  0.9498E-02  0.9498E-02
    -18.272  0.7057E-02  0.7057E-02  0.1027E-01  0.1027E-01
    -18.163  0.4173E-02  0.4173E-02  0.1072E-01  0.1072E-01
    -18.054  0.2749E-02  0.2749E-02  0.1102E-01  0.1102E-01
    -17.945  0.3851E-02  0.3851E-02  0.1144E-01  0.1144E-01
    -17.836  0.5039E-02  0.5039E-02  0.1199E-01  0.1199E-01
    -17.727  0.6963E-02  0.6963E-02  0.1275E-01  0.1275E-01
    -17.618  0.5417E-02  0.5417E-02  0.1334E-01  0.1334E-01
    -17.509  0.5665E-02  0.5665E-02  0.1396E-01  0.1396E-01
    -17.400  0.7875E-02  0.7875E-02  0.1482E-01  0.1482E-01
    -17.291  0.1271E-01  0.1271E-01  0.1621E-01  0.1621E-01
    -17.182  0.1491E-01  0.1491E-01  0.1783E-01  0.1783E-01
    -17.073  0.1525E-01  0.1525E-01  0.1950E-01  0.1950E-01
    -16.963  0.1817E-01  0.1817E-01  0.2148E-01  0.2148E-01
    -16.854  0.2010E-01  0.2010E-01  0.2367E-01  0.2367E-01
    -16.745  0.9485E-02  0.9485E-02  0.2471E-01  0.2471E-01
    -16.636  0.4391E-02  0.4391E-02  0.2519E-01  0.2519E-01
    -16.527  0.8923E-02  0.8923E-02  0.2616E-01  0.2616E-01
    -16.418  0.5747E-02  0.5747E-02  0.2679E-01  0.2679E-01
    -16.309  0.4154E-02  0.4154E-02  0.2724E-01  0.2724E-01
    -16.200  0.3613E-02  0.3613E-02  0.2763E-01  0.2763E-01
    -16.091  0.3970E-02  0.3970E-02  0.2807E-01  0.2807E-01
    -15.982  0.3161E-02  0.3161E-02  0.2841E-01  0.2841E-01
    -15.873  0.4743E-02  0.4743E-02  0.2893E-01  0.2893E-01
    -15.764  0.8569E-02  0.8569E-02  0.2986E-01  0.2986E-01
    -15.654  0.6439E-02  0.6439E-02  0.3056E-01  0.3056E-01
    -15.545  0.3357E-02  0.3357E-02  0.3093E-01  0.3093E-01
    -15.436  0.3487E-02  0.3487E-02  0.3131E-01  0.3131E-01
    -15.327  0.3097E-02  0.3097E-02  0.3165E-01  0.3165E-01
    -15.218  0.4838E-02  0.4838E-02  0.3218E-01  0.3218E-01
    -15.109  0.6679E-02  0.6679E-02  0.3291E-01  0.3291E-01
    -15.000  0.1055E-01  0.1055E-01  0.3406E-01  0.3406E-01
    -14.891  0.1673E-01  0.1673E-01  0.3588E-01  0.3588E-01
    -14.782  0.1728E-01  0.1728E-01  0.3777E-01  0.3777E-01
    -14.673  0.1541E-01  0.1541E-01  0.3945E-01  0.3945E-01
    -14.564  0.1143E-01  0.1143E-01  0.4069E-01  0.4069E-01
    -14.455  0.7643E-02  0.7643E-02  0.4153E-01  0.4153E-01
    -14.345  0.1304E-01  0.1304E-01  0.4295E-01  0.4295E-01
    -14.236  0.1487E-01  0.1487E-01  0.4457E-01  0.4457E-01
    -14.127  0.1173E-01  0.1173E-01  0.4585E-01  0.4585E-01
    -14.018  0.1117E-01  0.1117E-01  0.4707E-01  0.4707E-01
    -13.909  0.1198E-01  0.1198E-01  0.4838E-01  0.4838E-01
    -13.800  0.1829E-01  0.1829E-01  0.5037E-01  0.5037E-01
    -13.691  0.2023E-01  0.2023E-01  0.5258E-01  0.5258E-01
    -13.582  0.1808E-01  0.1808E-01  0.5455E-01  0.5455E-01
    -13.473  0.1476E-01  0.1476E-01  0.5616E-01  0.5616E-01
    -13.364  0.5195E-02  0.5195E-02  0.5673E-01  0.5673E-01
    -13.255  0.3117E-02  0.3117E-02  0.5707E-01  0.5707E-01
    -13.146  0.5249E-02  0.5249E-02  0.5764E-01  0.5764E-01
    -13.036  0.6563E-02  0.6563E-02  0.5836E-01  0.5836E-01
    -12.927  0.5329E-02  0.5329E-02  0.5894E-01  0.5894E-01
    -12.818  0.5433E-02  0.5433E-02  0.5953E-01  0.5953E-01
    -12.709  0.5368E-02  0.5368E-02  0.6012E-01  0.6012E-01
    -12.600  0.5989E-02  0.5989E-02  0.6077E-01  0.6077E-01
    -12.491  0.6150E-02  0.6150E-02  0.6144E-01  0.6144E-01
    -12.382  0.4472E-02  0.4472E-02  0.6193E-01  0.6193E-01
    -12.273  0.3923E-02  0.3923E-02  0.6235E-01  0.6235E-01
    -12.164  0.7198E-02  0.7198E-02  0.6314E-01  0.6314E-01
    -12.055  0.5728E-02  0.5728E-02  0.6376E-01  0.6376E-01
    -11.946  0.3314E-02  0.3314E-02  0.6413E-01  0.6413E-01
    -11.837  0.4042E-02  0.4042E-02  0.6457E-01  0.6457E-01
    -11.727  0.3281E-02  0.3281E-02  0.6493E-01  0.6493E-01
    -11.618  0.5009E-02  0.5009E-02  0.6547E-01  0.6547E-01
    -11.509  0.7061E-02  0.7061E-02  0.6624E-01  0.6624E-01
    -11.400  0.4383E-02  0.4383E-02  0.6672E-01  0.6672E-01
    -11.291  0.1530E-02  0.1530E-02  0.6689E-01  0.6689E-01
    -11.182  0.5076E-02  0.5076E-02  0.6744E-01  0.6744E-01
    -11.073  0.8843E-02  0.8843E-02  0.6841E-01  0.6841E-01
    -10.964  0.5774E-02  0.5774E-02  0.6904E-01  0.6904E-01
    -10.855  0.4271E-02  0.4271E-02  0.6950E-01  0.6950E-01
    -10.746  0.6127E-02  0.6127E-02  0.7017E-01  0.7017E-01
    -10.637  0.4822E-02  0.4822E-02  0.7070E-01  0.7070E-01
    -10.528  0.8891E-02  0.8891E-02  0.7167E-01  0.7167E-01
    -10.418  0.1441E-01  0.1441E-01  0.7324E-01  0.7324E-01
    -10.309  0.1718E-01  0.1718E-01  0.7511E-01  0.7511E-01
    -10.200  0.1541E-01  0.1541E-01  0.7679E-01  0.7679E-01
    -10.091  0.1456E-01  0.1456E-01  0.7838E-01  0.7838E-01
     -9.982  0.1745E-01  0.1745E-01  0.8028E-01  0.8028E-01
     -9.873  0.1121E-01  0.1121E-01  0.8151E-01  0.8151E-01
     -9.764  0.6982E-02  0.6982E-02  0.8227E-01  0.8227E-01
     -9.655  0.1133E-01  0.1133E-01  0.8350E-01  0.8350E-01
     -9.546  0.1550E-01  0.1550E-01  0.8519E-01  0.8519E-01
     -9.437  0.1405E-01  0.1405E-01  0.8673E-01  0.8673E-01
     -9.328  0.1444E-01  0.1444E-01  0.8830E-01  0.8830E-01
     -9.219  0.1644E-01  0.1644E-01  0.9009E-01  0.9009E-01
     -9.109  0.1295E-01  0.1295E-01  0.9151E-01  0.9151E-01
     -9.000  0.5685E-02  0.5685E-02  0.9213E-01  0.9213E-01
     -8.891  0.7628E-02  0.7628E-02  0.9296E-01  0.9296E-01
     -8.782  0.1997E-01  0.1997E-01  0.9514E-01  0.9514E-01
     -8.673  0.2246E-01  0.2246E-01  0.9759E-01  0.9759E-01
     -8.564  0.1294E-01  0.1294E-01  0.9900E-01  0.9900E-01
     -8.455  0.9284E-02  0.9284E-02  0.1000E+00  0.1000E+00
     -8.346  0.1243E-01  0.1243E-01  0.1014E+00  0.1014E+00
     -8.237  0.2395E-01  0.2395E-01  0.1040E+00  0.1040E+00
     -8.128  0.1830E-01  0.1830E-01  0.1060E+00  0.1060E+00
     -8.019  0.8068E-02  0.8068E-02  0.1069E+00  0.1069E+00
     -7.910  0.1838E-01  0.1838E-01  0.1089E+00  0.1089E+00
     -7.800  0.2504E-01  0.2504E-01  0.1116E+00  0.1116E+00
     -7.691  0.2020E-01  0.2020E-01  0.1138E+00  0.1138E+00
     -7.582  0.1956E-01  0.1956E-01  0.1159E+00  0.1159E+00
     -7.473  0.1343E-01  0.1343E-01  0.1174E+00  0.1174E+00
     -7.364  0.1444E-01  0.1444E-01  0.1190E+00  0.1190E+00
     -7.255  0.1291E-01  0.1291E-01  0.1204E+00  0.1204E+00
     -7.146  0.1349E-01  0.1349E-01  0.1218E+00  0.1218E+00
     -7.037  0.1604E-01  0.1604E-01  0.1236E+00  0.1236E+00
     -6.928  0.1603E-01  0.1603E-01  0.1253E+00  0.1253E+00
     -6.819  0.1633E-01  0.1633E-01  0.1271E+00  0.1271E+00
     -6.710  0.1579E-01  0.1579E-01  0.1288E+00  0.1288E+00
     -6.601  0.2342E-01  0.2342E-01  0.1314E+00  0.1314E+00
     -6.491  0.2369E-01  0.2369E-01  0.1340E+00  0.1340E+00
     -6.382  0.1825E-01  0.1825E-01  0.1360E+00  0.1360E+00
     -6.273  0.1785E-01  0.1785E-01  0.1379E+00  0.1379E+00
     -6.164  0.1454E-01  0.1454E-01  0.1395E+00  0.1395E+00
     -6.055  0.1846E-01  0.1846E-01  0.1415E+00  0.1415E+00
     -5.946  0.3059E-01  0.3059E-01  0.1449E+00  0.1449E+00
     -5.837  0.2306E-01  0.2306E-01  0.1474E+00  0.1474E+00
     -5.728  0.2244E-01  0.2244E-01  0.1498E+00  0.1498E+00
     -5.619  0.2250E-01  0.2250E-01  0.1523E+00  0.1523E+00
     -5.510  0.2556E-01  0.2556E-01  0.1551E+00  0.1551E+00
     -5.401  0.2101E-01  0.2101E-01  0.1574E+00  0.1574E+00
     -5.292  0.2502E-01  0.2502E-01  0.1601E+00  0.1601E+00
     -5.182  0.3501E-01  0.3501E-01  0.1639E+00  0.1639E+00
     -5.073  0.1993E-01  0.1993E-01  0.1661E+00  0.1661E+00
     -4.964  0.8998E-02  0.8998E-02  0.1671E+00  0.1671E+00
     -4.855  0.6163E-02  0.6163E-02  0.1677E+00  0.1677E+00
     -4.746  0.1088E-01  0.1088E-01  0.1689E+00  0.1689E+00
     -4.637  0.1715E-01  0.1715E-01  0.1708E+00  0.1708E+00
     -4.528  0.1307E-01  0.1307E-01  0.1722E+00  0.1722E+00
     -4.419  0.8247E-02  0.8247E-02  0.1731E+00  0.1731E+00
     -4.310  0.6807E-02  0.6807E-02  0.1739E+00  0.1739E+00
     -4.201  0.1461E-01  0.1461E-01  0.1755E+00  0.1755E+00
     -4.092  0.2162E-01  0.2162E-01  0.1778E+00  0.1778E+00
     -3.983  0.2203E-01  0.2203E-01  0.1802E+00  0.1802E+00
     -3.873  0.2538E-01  0.2538E-01  0.1830E+00  0.1830E+00
     -3.764  0.2443E-01  0.2443E-01  0.1856E+00  0.1856E+00
     -3.655  0.2187E-01  0.2187E-01  0.1880E+00  0.1880E+00
     -3.546  0.1817E-01  0.1817E-01  0.1900E+00  0.1900E+00
     -3.437  0.1526E-01  0.1526E-01  0.1917E+00  0.1917E+00
     -3.328  0.1632E-01  0.1632E-01  0.1935E+00  0.1935E+00
     -3.219  0.1270E-01  0.1270E-01  0.1948E+00  0.1948E+00
     -3.110  0.1757E-01  0.1757E-01  0.1968E+00  0.1968E+00
     -3.001  0.1988E-01  0.1988E-01  0.1989E+00  0.1989E+00
     -2.892  0.1413E-01  0.1413E-01  0.2005E+00  0.2005E+00
     -2.783  0.1332E-01  0.1332E-01  0.2019E+00  0.2019E+00
     -2.674  0.1248E-01  0.1248E-01  0.2033E+00  0.2033E+00
     -2.565  0.8374E-02  0.8374E-02  0.2042E+00  0.2042E+00
     -2.455  0.1161E-01  0.1161E-01  0.2055E+00  0.2055E+00
     -2.346  0.1821E-01  0.1821E-01  0.2075E+00  0.2075E+00
     -2.237  0.1219E-01  0.1219E-01  0.2088E+00  0.2088E+00
     -2.128  0.3610E-02  0.3610E-02  0.2092E+00  0.2092E+00
     -2.019  0.8461E-02  0.8461E-02  0.2101E+00  0.2101E+00
     -1.910  0.9545E-02  0.9545E-02  0.2111E+00  0.2111E+00
     -1.801  0.8531E-02  0.8531E-02  0.2121E+00  0.2121E+00
     -1.692  0.1047E-01  0.1047E-01  0.2132E+00  0.2132E+00
     -1.583  0.9559E-02  0.9559E-02  0.2143E+00  0.2143E+00
     -1.474  0.1029E-01  0.1029E-01  0.2154E+00  0.2154E+00
     -1.365  0.6714E-02  0.6714E-02  0.2161E+00  0.2161E+00
     -1.256  0.2377E-02  0.2377E-02  0.2164E+00  0.2164E+00
     -1.146  0.4764E-02  0.4764E-02  0.2169E+00  0.2169E+00
     -1.037  0.3986E-02  0.3986E-02  0.2173E+00  0.2173E+00
     -0.928  0.2931E-02  0.2931E-02  0.2176E+00  0.2176E+00
     -0.819  0.4696E-02  0.4696E-02  0.2182E+00  0.2182E+00
     -0.710  0.3707E-02  0.3707E-02  0.2186E+00  0.2186E+00
     -0.601  0.6863E-03  0.6863E-03  0.2186E+00  0.2186E+00
     -0.492  0.2695E-04  0.2695E-04  0.2186E+00  0.2186E+00
     -0.383  0.1907E-06  0.1907E-06  0.2186E+00  0.2186E+00
     -0.274  0.4403E-05  0.4403E-05  0.2186E+00  0.2186E+00
     -0.165  0.1873E-03  0.1873E-03  0.2187E+00  0.2187E+00
     -0.056  0.9917E-03  0.9917E-03  0.2188E+00  0.2188E+00
      0.053  0.7318E-03  0.7318E-03  0.2189E+00  0.2189E+00
      0.163  0.7336E-04  0.7336E-04  0.2189E+00  0.2189E+00
      0.272  0.8775E-06  0.8775E-06  0.2189E+00  0.2189E+00
      0.381  0.4844E-06  0.4844E-06  0.2189E+00  0.2189E+00
      0.490  0.7651E-04  0.7651E-04  0.2189E+00  0.2189E+00
      0.599  0.1392E-02  0.1392E-02  0.2190E+00  0.2190E+00
      0.708  0.3354E-02  0.3354E-02  0.2194E+00  0.2194E+00
      0.817  0.2001E-02  0.2002E-02  0.2196E+00  0.2196E+00
      0.926  0.5253E-02  0.5253E-02  0.2202E+00  0.2202E+00
      1.035  0.8782E-02  0.8782E-02  0.2211E+00  0.2211E+00
      1.144  0.1472E-01  0.1472E-01  0.2227E+00  0.2227E+00
      1.253  0.1970E-01  0.1970E-01  0.2249E+00  0.2249E+00
      1.362  0.1417E-01  0.1417E-01  0.2264E+00  0.2264E+00
      1.472  0.4832E-02  0.4832E-02  0.2270E+00  0.2270E+00
      1.581  0.1445E-02  0.1445E-02  0.2271E+00  0.2271E+00
      1.690  0.5007E-02  0.5007E-02  0.2277E+00  0.2277E+00
      1.799  0.1369E-01  0.1369E-01  0.2292E+00  0.2292E+00
      1.908  0.1930E-01  0.1930E-01  0.2313E+00  0.2313E+00
      2.017  0.1162E-01  0.1162E-01  0.2325E+00  0.2325E+00
      2.126  0.9496E-02  0.9496E-02  0.2336E+00  0.2336E+00
      2.235  0.1141E-01  0.1141E-01  0.2348E+00  0.2348E+00
      2.344  0.1071E-01  0.1071E-01  0.2360E+00  0.2360E+00
      2.453  0.8282E-02  0.8282E-02  0.2369E+00  0.2369E+00
      2.562  0.8357E-02  0.8357E-02  0.2378E+00  0.2378E+00
      2.671  0.5268E-02  0.5268E-02  0.2384E+00  0.2384E+00
      2.781  0.6780E-02  0.6780E-02  0.2391E+00  0.2391E+00
      2.890  0.1044E-01  0.1044E-01  0.2402E+00  0.2402E+00
      2.999  0.1110E-01  0.1110E-01  0.2415E+00  0.2415E+00
      3.108  0.9990E-02  0.9988E-02  0.2425E+00  0.2425E+00
      3.217  0.9592E-02  0.9591E-02  0.2436E+00  0.2436E+00
      3.326  0.8258E-02  0.8258E-02  0.2445E+00  0.2445E+00
      3.435  0.1024E-01  0.1024E-01  0.2456E+00  0.2456E+00
      3.544  0.9832E-02  0.9833E-02  0.2467E+00  0.2467E+00
      3.653  0.9921E-02  0.9923E-02  0.2478E+00  0.2478E+00
      3.762  0.8786E-02  0.8786E-02  0.2487E+00  0.2487E+00
      3.871  0.1472E-01  0.1472E-01  0.2503E+00  0.2503E+00
      3.980  0.2212E-01  0.2212E-01  0.2527E+00  0.2527E+00
      4.090  0.1626E-01  0.1626E-01  0.2545E+00  0.2545E+00
      4.199  0.1230E-01  0.1230E-01  0.2559E+00  0.2559E+00
      4.308  0.1312E-01  0.1313E-01  0.2573E+00  0.2573E+00
      4.417  0.1989E-01  0.1989E-01  0.2595E+00  0.2595E+00
      4.526  0.2578E-01  0.2578E-01  0.2623E+00  0.2623E+00
      4.635  0.2023E-01  0.2023E-01  0.2645E+00  0.2645E+00
      4.744  0.1904E-01  0.1903E-01  0.2666E+00  0.2666E+00
      4.853  0.2977E-01  0.2977E-01  0.2698E+00  0.2698E+00
      4.962  0.2977E-01  0.2977E-01  0.2731E+00  0.2730E+00
      5.071  0.2361E-01  0.2361E-01  0.2756E+00  0.2756E+00
      5.180  0.2906E-01  0.2905E-01  0.2788E+00  0.2788E+00
      5.289  0.2915E-01  0.2915E-01  0.2820E+00  0.2820E+00
      5.399  0.2286E-01  0.2286E-01  0.2845E+00  0.2845E+00
      5.508  0.2614E-01  0.2614E-01  0.2873E+00  0.2873E+00
      5.617  0.1955E-01  0.1954E-01  0.2895E+00  0.2895E+00
      5.726  0.2021E-01  0.2020E-01  0.2917E+00  0.2917E+00
      5.835  0.2169E-01  0.2169E-01  0.2940E+00  0.2940E+00
      5.944  0.2070E-01  0.2070E-01  0.2963E+00  0.2963E+00
      6.053  0.2395E-01  0.2395E-01  0.2989E+00  0.2989E+00
      6.162  0.2235E-01  0.2235E-01  0.3013E+00  0.3013E+00
      6.271  0.1845E-01  0.1845E-01  0.3033E+00  0.3033E+00
      6.380  0.1776E-01  0.1776E-01  0.3053E+00  0.3053E+00
      6.489  0.2166E-01  0.2167E-01  0.3076E+00  0.3076E+00
      6.598  0.1893E-01  0.1894E-01  0.3097E+00  0.3097E+00
      6.708  0.1976E-01  0.1976E-01  0.3119E+00  0.3119E+00
      6.817  0.2383E-01  0.2381E-01  0.3145E+00  0.3145E+00
      6.926  0.2914E-01  0.2915E-01  0.3176E+00  0.3176E+00
      7.035  0.2522E-01  0.2522E-01  0.3204E+00  0.3204E+00
      7.144  0.2909E-01  0.2909E-01  0.3236E+00  0.3236E+00
      7.253  0.2825E-01  0.2826E-01  0.3267E+00  0.3266E+00
      7.362  0.2015E-01  0.2015E-01  0.3288E+00  0.3288E+00
      7.471  0.1865E-01  0.1865E-01  0.3309E+00  0.3309E+00
      7.580  0.2210E-01  0.2210E-01  0.3333E+00  0.3333E+00
      7.689  0.2342E-01  0.2342E-01  0.3358E+00  0.3358E+00
      7.798  0.2048E-01  0.2048E-01  0.3381E+00  0.3381E+00
      7.907  0.2238E-01  0.2238E-01  0.3405E+00  0.3405E+00
      8.017  0.1884E-01  0.1885E-01  0.3426E+00  0.3426E+00
      8.126  0.2625E-01  0.2623E-01  0.3454E+00  0.3454E+00
      8.235  0.3250E-01  0.3250E-01  0.3490E+00  0.3490E+00
      8.344  0.2240E-01  0.2242E-01  0.3514E+00  0.3514E+00
      8.453  0.2782E-01  0.2781E-01  0.3545E+00  0.3545E+00
      8.562  0.3143E-01  0.3143E-01  0.3579E+00  0.3579E+00
      8.671  0.3132E-01  0.3132E-01  0.3613E+00  0.3613E+00
      8.780  0.3437E-01  0.3437E-01  0.3651E+00  0.3651E+00
      8.889  0.2398E-01  0.2399E-01  0.3677E+00  0.3677E+00
      8.998  0.1649E-01  0.1649E-01  0.3695E+00  0.3695E+00
      9.107  0.1706E-01  0.1706E-01  0.3713E+00  0.3713E+00
      9.216  0.1957E-01  0.1957E-01  0.3735E+00  0.3735E+00
      9.326  0.1202E-01  0.1202E-01  0.3748E+00  0.3748E+00
      9.435  0.1956E-02  0.1956E-02  0.3750E+00  0.3750E+00
      9.544  0.5170E-04  0.5171E-04  0.3750E+00  0.3750E+00
      9.653  0.1724E-06  0.1725E-06  0.3750E+00  0.3750E+00
      9.762  0.6352E-10  0.6356E-10  0.3750E+00  0.3750E+00
      9.871  0.2407E-14  0.2408E-14  0.3750E+00  0.3750E+00
      9.980  0.0000E+00  0.0000E+00  0.3750E+00  0.3750E+00
     10.089  0.0000E+00  0.0000E+00  0.3750E+00  0.3750E+00
     10.198  0.0000E+00  0.0000E+00  0.3750E+00  0.3750E+00
     10.307  0.0000E+00  0.0000E+00  0.3750E+00  0.3750E+00
     10.416  0.0000E+00  0.0000E+00  0.3750E+00  0.3750E+00
     10.525  0.0000E+00  0.0000E+00  0.3750E+00  0.3750E+00
     10.635  0.0000E+00  0.0000E+00  0.3750E+00  0.3750E+00
     10.744  0.0000E+00  0.0000E+00  0.3750E+00  0.3750E+00
